# vtk DataFile Version 5.1
vtk output
ASCII
DATASET POLYDATA
POINTS 26671 double
0 53.525001526 48.5 0.84959411621 52.675003052 46.5 0.84959411621 52.675003052 47 
0.84959411621 52.675003052 47.5 0.84959411621 52.675003052 48 0.84959411621 54.375 49 
0.84959411621 55.223999023 49.5 0.84959411621 56.92300415 48.5 0.84959411621 57.773002625 47 
0.84959411621 57.773002625 47.5 0.84959411621 58.623001099 46.5 1.6991958618 50.976005554 52.5 
1.6991958618 51.826004028 52 1.6991958618 52.675003052 51.5 1.6991958618 53.525001526 51 
1.6991958618 54.375 50.5 1.6991958618 55.223999023 50 1.6991958618 56.074005127 49 
1.6991958618 56.92300415 48 1.6991958618 58.623001099 46 1.6991958618 59.472000122 45.5 
1.6991958618 60.322006226 45 2.5487976074 44.179000854 53 2.5487976074 45.028999329 53 
2.5487976074 45.878005981 52.5 2.5487976074 46.728004456 52.5 2.5487976074 47.57800293 52.5 
2.5487976074 48.427001953 52.5 2.5487976074 49.277000427 52.5 2.5487976074 50.126998901 53 
2.5487976074 61.171005249 44.5 2.5487976074 62.021003723 43.5 2.5487976074 62.021003723 44 
2.5487976074 62.871002197 43 2.5487976074 84.110900879 82.5 2.5487976074 84.960502625 81 
2.5487976074 84.960502625 81.5 3.3983955383 42.480003357 54.5 3.3983955383 42.480003357 55 
3.3983955383 42.480003357 55.5 3.3983955383 43.330001831 53.5 3.3983955383 43.330001831 54 
3.3983955383 50.976005554 53.5 3.3983955383 50.976005554 54 3.3983955383 50.976005554 54.5 
3.3983955383 63.720001221 42.5 3.3983955383 64.569999695 42.5 3.3983955383 83.261299133 80.5 
3.3983955383 84.110900879 80.5 3.3983955383 84.110900879 82 3.3983955383 84.110900879 83 
4.2479972839 42.480003357 56 4.2479972839 42.480003357 56.5 4.2479972839 49.277000427 56.5 
4.2479972839 50.126998901 56 4.2479972839 50.126998901 57 4.2479972839 50.976005554 55 
4.2479972839 50.976005554 55.5 4.2479972839 65.418998718 41.5 4.2479972839 65.418998718 42 
4.2479972839 66.269004822 41 4.2479972839 82.411705017 84 4.2479972839 83.261299133 83.5 
5.0975952148 42.480003357 57.5 5.0975952148 42.480003357 58 5.0975952148 43.330001831 57 
5.0975952148 43.330001831 58.5 5.0975952148 43.330001831 59 5.0975952148 43.330001831 59.5 
5.0975952148 43.330001831 60 5.0975952148 44.179000854 56.5 5.0975952148 45.028999329 56.5 
5.0975952148 45.878005981 56.5 5.0975952148 46.728004456 56 5.0975952148 47.57800293 56 
5.0975952148 48.427001953 56 5.0975952148 50.126998901 57.5 5.0975952148 50.126998901 58 
5.0975952148 50.976005554 58.5 5.0975952148 50.976005554 59 5.0975952148 50.976005554 59.5 
5.0975952148 67.119003296 41 5.0975952148 81.562103271 84.5 5.9471969604 35.682998657 68 
5.9471969604 36.533004761 67.5 5.9471969604 37.382003784 67.5 5.9471969604 38.232009888 67 
5.9471969604 39.082000732 66.5 5.9471969604 39.930999756 66 5.9471969604 40.781005859 65.5 
5.9471969604 41.630004883 65 5.9471969604 42.480003357 64.5 5.9471969604 43.330001831 60.5 
5.9471969604 43.330001831 61 5.9471969604 43.330001831 61.5 5.9471969604 43.330001831 62 
5.9471969604 43.330001831 62.5 5.9471969604 43.330001831 63 5.9471969604 43.330001831 63.5 
5.9471969604 43.330001831 64 5.9471969604 50.976005554 60 5.9471969604 50.976005554 60.5 
5.9471969604 50.976005554 61 5.9471969604 50.976005554 61.5 5.9471969604 50.976005554 62 
5.9471969604 50.976005554 62.5 5.9471969604 67.968002319 41 5.9471969604 68.818000793 41.5 
5.9471969604 80.712501526 85 6.7967948914 34.833999634 68.5 6.7967948914 40.781005859 65 
6.7967948914 50.976005554 63 6.7967948914 50.976005554 63.5 6.7967948914 50.976005554 64 
6.7967948914 51.826004028 64.5 6.7967948914 51.826004028 65 6.7967948914 52.675003052 65.5 
6.7967948914 69.667999268 41.5 6.7967948914 75.6147995 87.5 6.7967948914 79.013198853 47.5 
6.7967948914 80.712501526 85.5 6.7967948914 80.712501526 86 7.646396637 33.984008789 69 
7.646396637 33.984008789 69.5 7.646396637 34.833999634 85 7.646396637 39.930999756 64.5 
7.646396637 52.675003052 66 7.646396637 53.525001526 66.5 7.646396637 70.517105103 42 
7.646396637 71.36680603 42.5 7.646396637 71.36680603 43 7.646396637 72.216400146 43.5 
7.646396637 72.216400146 44 7.646396637 73.066001892 44.5 7.646396637 75.6147995 88.5 
7.646396637 76.464401245 87.5 7.646396637 79.013198853 47.5 7.646396637 79.86289978 86.5 
8.4960975647 33.134002686 70 8.4960975647 35.682998657 85.5 8.4960975647 35.682998657 86 
8.4960975647 39.930999756 64 8.4960975647 54.375 67 8.4960975647 55.223999023 101.5 
8.4960975647 72.216400146 45 8.4960975647 73.066001892 45.5 8.4960975647 73.915603638 46 
8.4960975647 73.915603638 46.5 8.4960975647 75.6147995 88.5 8.4960975647 77.314002991 47.5 
8.4960975647 77.314002991 87.5 8.4960975647 78.163604736 47.5 8.4960975647 79.013198853 87.5 
8.4960975647 79.86289978 87 9.3456954956 33.134002686 70.5 9.3456954956 36.533004761 86.5 
9.3456954956 36.533004761 87 9.3456954956 38.232009888 89 9.3456954956 39.082000732 64.5 
9.3456954956 39.082000732 90.5 9.3456954956 54.375 101 9.3456954956 55.223999023 67.5 
9.3456954956 74.765205383 47 9.3456954956 75.6147995 47.5 9.3456954956 75.6147995 89 
9.3456954956 76.464401245 48 9.3456954956 78.163604736 88 10.195297241 30.585998535 93 
10.195297241 30.585998535 93.5 10.195297241 33.134002686 71 10.195297241 36.533004761 87.5 
10.195297241 37.382003784 88 10.195297241 37.382003784 88.5 10.195297241 38.232009888 89.5 
10.195297241 39.082000732 64.5 10.195297241 39.082000732 90 10.195297241 39.930999756 91 
10.195297241 40.781005859 91.5 10.195297241 41.630004883 91.5 10.195297241 54.375 67 
10.195297241 54.375 101 10.195297241 74.765205383 48 10.195297241 76.464401245 47 
10.195297241 76.464401245 89 10.195297241 78.163604736 88.5 11.044895172 27.18699646 91 
11.044895172 28.037002563 91.5 11.044895172 28.886001587 91.5 11.044895172 29.73600769 92 
11.044895172 30.585998535 92.5 11.044895172 31.434997559 94 11.044895172 32.285003662 94 
11.044895172 33.134002686 71.5 11.044895172 33.984008789 94.5 11.044895172 33.984008789 95 
11.044895172 33.984008789 95.5 11.044895172 38.232009888 64.5 11.044895172 42.480003357 92 
11.044895172 43.330001831 92.5 11.044895172 54.375 66.5 11.044895172 54.375 94 
11.044895172 54.375 100.5 11.044895172 75.6147995 48 11.044895172 76.464401245 46.5 
11.044895172 77.314002991 88.5 11.894496918 26.337005615 91 11.894496918 33.134002686 72 
11.894496918 33.134002686 94 11.894496918 34.833999634 96 11.894496918 34.833999634 96.5 
11.894496918 35.682998657 98.5 11.894496918 36.533004761 98 11.894496918 37.382003784 65 
11.894496918 37.382003784 97.5 11.894496918 38.232009888 98 11.894496918 41.630004883 98 
11.894496918 42.480003357 98 11.894496918 43.330001831 98 11.894496918 44.179000854 92 
11.894496918 45.878005981 93 11.894496918 45.878005981 93.5 11.894496918 46.728004456 94 
11.894496918 47.57800293 94.5 11.894496918 47.57800293 97 11.894496918 48.427001953 95 
11.894496918 48.427001953 95.5 11.894496918 48.427001953 96 11.894496918 48.427001953 96.5 
11.894496918 48.427001953 97 11.894496918 53.525001526 67 11.894496918 53.525001526 67.5 
11.894496918 53.525001526 100 11.894496918 53.525001526 101 11.894496918 54.375 93.5 
11.894496918 54.375 96.5 11.894496918 55.223999023 94.5 11.894496918 55.223999023 96 
11.894496918 63.720001221 67 11.894496918 75.6147995 48.5 11.894496918 76.464401245 46.5 
11.894496918 77.314002991 46 11.894496918 77.314002991 89 11.894496918 77.314002991 89.5 
12.744094849 24.638000488 79.5 12.744094849 25.488006592 80 12.744094849 26.337005615 79.5 
12.744094849 26.337005615 80.5 12.744094849 26.337005615 81 12.744094849 27.18699646 76 
12.744094849 27.18699646 76.5 12.744094849 27.18699646 77 12.744094849 27.18699646 77.5 
12.744094849 27.18699646 78 12.744094849 27.18699646 78.5 12.744094849 27.18699646 79 
12.744094849 27.18699646 81 12.744094849 28.037002563 81.5 12.744094849 28.886001587 81.5 
12.744094849 33.134002686 72.5 12.744094849 35.682998657 97 12.744094849 36.533004761 97 
12.744094849 37.382003784 65 12.744094849 39.082000732 98 12.744094849 39.930999756 98 
12.744094849 40.781005859 98 12.744094849 41.630004883 97.5 12.744094849 41.630004883 98.5 
12.744094849 42.480003357 97.5 12.744094849 42.480003357 98.5 12.744094849 43.330001831 97.5 
12.744094849 43.330001831 98.5 12.744094849 44.179000854 91.5 12.744094849 44.179000854 98 
12.744094849 45.028999329 92.5 12.744094849 45.028999329 97.5 12.744094849 45.878005981 97.5 
12.744094849 46.728004456 97.5 12.744094849 48.427001953 94.5 12.744094849 49.277000427 94 
12.744094849 49.277000427 97.5 12.744094849 50.126998901 98 12.744094849 50.976005554 98 
12.744094849 51.826004028 92.5 12.744094849 51.826004028 93 12.744094849 52.675003052 92.5 
12.744094849 52.675003052 100.5 12.744094849 53.525001526 97 12.744094849 54.375 68 
12.744094849 54.375 93.5 12.744094849 54.375 95 12.744094849 55.223999023 95.5 
12.744094849 61.171005249 66.5 12.744094849 62.021003723 66.5 12.744094849 62.871002197 66.5 
12.744094849 63.720001221 66 12.744094849 76.464401245 44 12.744094849 76.464401245 44.5 
12.744094849 76.464401245 45 12.744094849 76.464401245 49 12.744094849 77.314002991 45.5 
12.744094849 77.314002991 47 12.744094849 77.314002991 49.5 12.744094849 77.314002991 88.5 
12.744094849 77.314002991 90 12.744094849 83.261299133 24 13.593696594 22.938995361 78.5 
13.593696594 23.789001465 79 13.593696594 25.488006592 81.5 13.593696594 25.488006592 82 
13.593696594 27.18699646 75 13.593696594 27.18699646 75.5 13.593696594 29.73600769 81.5 
13.593696594 30.585998535 82 13.593696594 33.134002686 73 13.593696594 37.382003784 65.5 
13.593696594 40.781005859 98 13.593696594 41.630004883 97.5 13.593696594 41.630004883 98.5 
13.593696594 42.480003357 97.5 13.593696594 42.480003357 98.5 13.593696594 43.330001831 86.5 
13.593696594 43.330001831 87 13.593696594 43.330001831 97.5 13.593696594 43.330001831 98.5 
13.593696594 44.179000854 86 13.593696594 44.179000854 98 13.593696594 45.028999329 91 
13.593696594 45.878005981 90.5 13.593696594 46.728004456 90.5 13.593696594 47.57800293 90.5 
[...]
POINT_DATA 26671
FIELD FieldData 2
radius 1 26671 double
0.1 0.1 0.1 0.1 0.1 0.1 0.849609 0.5 0.849609 
0.5 0.5 0.5 0.849609 0.849609 0.849609 0.985817 0.849609 0.849609 
0.5 0.5 0.5 0.5 0.849609 0.5 0.985817 0.985817 0.985817 
0.985817 0.985817 0.5 0.5 0.985817 0.5 0.849609 0.1 0.1 
0.1 0.985817 0.985817 0.849609 0.849609 0.849609 0.1 0.1 0.1 
0.5 0.5 0.1 0.1 0.1 0.1 0.849609 0.849609 0.1 
0.1 0.1 0.1 0.1 0.849609 0.5 0.849609 0.1 0.1 
0.849609 0.849609 0.5 0.849609 0.849609 0.849609 0.849609 0.1 0.1 
0.1 0.1 0.1 0.1 0.1 0.1 0.1 0.1 0.1 
0.985817 0.1 0.849609 0.849609 0.5 0.849609 0.849609 0.985817 0.849609 
0.849609 0.849609 0.5 0.849609 0.849609 0.849609 0.849609 0.849609 0.849609 
0.5 0.1 0.1 0.1 0.1 0.1 0.1 0.985817 0.5 
0.849609 0.5 0.849609 0.1 0.1 0.1 0.1 0.1 0.1 
0.985817 0.1 0.1 0.5 0.849609 0.849609 0.5 0.985817 0.1 
0.1 0.1 0.5 0.5 0.849609 0.5 0.849609 0.5 0.1 
0.1 0.1 0.5 0.5 0.985817 0.985817 0.1 0.1 0.1 
0.849609 0.849609 0.985817 0.849609 0.1 0.1 0.1 0.1 0.5 
0.5 0.5 0.849609 0.985817 0.1 0.1 0.1 0.1 0.1 
0.849609 0.849609 0.1 0.5 0.5 0.5 0.1 0.5 0.5 
0.1 0.1 0.1 0.1 0.1 0.1 0.5 0.5 0.1 
0.1 0.5 0.849609 0.1 0.5 0.1 0.5 0.5 0.5 
0.5 0.1 0.1 0.5 0.1 0.1 0.1 0.1 0.849609 
0.849609 0.1 0.1 0.1 0.1 0.985817 0.5 0.1 0.5 
0.1 0.5 0.5 0.1 0.1 0.1 0.1 0.1 0.1 
0.1 0.1 0.849609 0.5 0.849609 0.985817 0.849609 0.5 0.849609 
0.849609 0.849609 0.849609 0.5 0.1 0.1 0.1 0.1 0.1 
0.1 0.1 0.1 0.1 0.1 0.5 0.849609 0.5 0.849609 
0.1 0.5 0.1 0.5 0.5 0.1 0.1 0.1 0.1 
0.1 0.1 0.1 0.849609 0.5 0.5 0.5 0.5 0.5 
0.1 0.849609 0.5 0.1 0.1 0.1 0.1 0.1 0.1 
0.1 0.985817 0.1 0.985817 0.849609 0.849609 0.849609 0.5 0.5 
0.5 0.849609 0.849609 0.1 0.1 0.1 0.1 0.1 0.1 
0.1 0.1 0.1 0.1 0.1 0.1 0.1 0.849609 0.849609 
0.849609 0.1 0.849609 0.1 0.1 0.1 0.5 0.1 0.5 
0.5 0.1 0.1 0.1 0.1 0.5 0.5 0.5 0.1 
0.1 0.1 0.1 0.1 0.1 1.312188 1.563225 0.1 0.1 
0.5 0.1 0.5 0.1 0.1 0.1 0.1 0.1 0.1 
0.1 0.1 0.1 0.1 0.1 0.1 0.1 0.1 0.985817 
0.5 0.1 0.1 0.1 0.1 0.1 0.1 0.1 0.1 
0.1 0.1 0.1 0.1 0.1 0.1 0.1 0.1 0.1 
0.1 0.1 0.1 0.1 0.1 0.1 0.1 0.5 0.5 
0.1 0.1 0.1 0.1 0.1 0.1 0.1 0.5 0.849609 
0.849609 0.849609 0.1 0.1 0.1 0.1 0.1 0.1 0.5 
0.1 0.1 0.1 0.1 0.1 0.1 0.1 0.1 0.1 
0.1 0.1 0.5 0.5 0.1 0.1 0.5 0.5 0.5 
0.1 0.1 0.1 0.985817 1.201529 0.5 0.1 0.1 0.5 
0.849609 0.1 0.1 0.1 0.1 0.1 0.1 0.1 0.1 
0.1 0.1 0.1 0.1 0.1 1 1.312188 0.985817 0.1 
0.1 0.1 0.1 0.1 0.1 0.1 0.1 0.1 0.5 
0.985817 0.849609 0.1 0.985817 0.985817 0.849609 0.849609 0.849609 0.1 
0.1 0.849609 0.849609 0.1 0.1 0.1 0.1 0.1 0.1 
0.1 0.1 0.1 0.1 0.1 0.1 0.1 0.1 0.1 
0.1 0.1 0.5 0.1 0.1 0.1 0.1 0.1 0.1 
0.1 0.1 0.1 0.5 0.1 0.1 0.1 0.1 0.1 
0.1 0.5 0.1 0.5 0.1 0.849609 0.1 0.1 0.1 
0.1 0.1 0.1 0.1 0.5 1.5 0.1 0.1 0.1 
0.1 0.1 0.1 0.1 0.1 0.1 0.1 0.1 0.1 
0.1 0.1 0.1 0.1 0.5 0.849609 0.985817 0.849609 0.1 
0.1 0.1 0.1 0.1 0.5 0.1 0.1 0.1 0.1 
0.1 0.5 0.5 0.5 0.1 0.1 0.1 0.1 0.1 
0.1 0.1 0.1 0.5 0.1 0.849609 0.1 0.1 0.1 
0.1 0.5 0.1 0.1 0.1 0.1 1.312188 0.1 0.1 
0.1 0.1 0.1 0.1 0.849609 0.5 0.1 0.1 0.849609 
0.849609 0.5 0.5 0.985817 0.985817 0.849609 0.1 0.1 0.1 
0.5 0.1 0.1 0.1 0.1 0.1 0.1 0.1 0.5 
0.1 0.5 0.5 0.5 0.5 0.1 0.1 0.1 0.1 
0.1 0.1 0.1 0.1 0.1 0.1 0.1 0.1 0.1 
0.1 0.5 0.1 0.1 0.5 0.849609 0.1 0.1 0.5 
0.1 0.1 0.1 0.5 0.1 1.301412 1.312188 0.985817 0.1 
0.1 0.1 0.1 0.1 0.849609 0.5 0.1 0.985817 0.849609 
0.5 0.1 0.5 0.1 0.1 0.1 0.1 0.1 0.1 
0.1 0.5 0.1 0.1 0.1 0.1 0.1 0.1 0.1 
0.1 0.1 0.849609 0.1 0.5 0.5 0.985817 0.1 0.5 
0.1 0.1 0.5 0.1 0.1 0.1 0.5 0.1 0.5 
0.1 0.1 0.1 0.1 0.5 0.1 0.849609 0.849609 0.1 
0.1 0.1 0.5 0.1 0.1 0.1 0.1 0.1 0.1 
0.1 0.1 0.1 0.1 0.5 0.1 0.1 0.1 0.1 
0.1 0.1 0.1 0.1 0.1 0.1 0.1 0.1 0.1 
0.1 0.1 0.1 0.1 0.1 0.1 0.5 0.1 0.1 
0.5 0.5 0.5 0.1 0.1 0.1 0.1 0.1 0.1 
0.1 0.1 0.1 0.1 0.1 0.1 0.5 0.1 0.1 
0.1 0.5 0.1 0.1 0.1 0.1 0.1 0.1 0.1 
0.1 0.1 0.1 0.1 0.1 0.985817 0.1 0.1 0.5 
0.1 0.1 0.1 0.1 0.1 0.5 0.1 0.1 0.1 
0.1 0.1 0.1 0.1 0.1 0.1 0.1 0.1 0.1 
0.1 0.1 0.1 0.1 0.1 0.1 0.1 0.1 0.1 
0.1 0.5 0.1 0.1 0.1 0.5 0.5 0.5 0.1 
0.1 0.1 0.1 0.5 0.1 0.1 0.1 0.1 0.1 
0.5 0.1 0.1 0.5 0.985817 0.1 0.1 0.1 0.1 
0.1 0.1 0.985817 0.1 0.1 0.5 0.1 0.1 0.1 
0.1 0.1 0.5 0.5 0.1 0.1 0.1 0.1 0.1 
0.1 0.1 0.1 0.1 0.1 0.1 0.1 0.1 0.1 
0.1 0.1 0.1 0.1 0.1 0.1 0.1 0.849609 0.1 
0.1 0.5 0.5 0.1 0.1 0.1 0.1 0.1 0.1 
0.1 0.1 0.1 0.1 0.5 0.1 0.1 0.1 0.1 
1.201529 0.1 0.1 0.1 0.1 0.985817 0.1 0.5 0.1 
0.1 0.1 0.1 0.1 0.1 0.5 0.5 0.1 0.1 
0.1 0.1 0.1 0.1 0.1 0.1 0.1 0.1 0.1 
0.1 0.1 0.1 0.1 0.1 0.1 0.1 0.1 0.985817 
0.1 0.1 0.1 0.849609 0.1 0.1 0.1 0.1 0.1 
0.1 0.1 0.5 0.1 0.1 0.849609 0.1 0.1 0.849609 
0.1 0.985817 0.1 0.1 0.1 0.1 0.5 0.1 0.1 
0.5 0.1 0.1 0.1 0.1 0.1 0.1 0.1 0.1 
0.1 0.1 0.1 0.5 0.849609 0.1 0.1 0.1 0.1 
0.1 0.1 0.1 0.1 0.1 0.1 0.985817 0.1 0.1 
0.849609 0.1 0.1 0.1 0.1 0.1 0.5 0.1 0.1 
0.1 0.1 1.201529 0.1 0.1 0.1 0.985817 0.5 0.5 
0.5 0.1 0.1 0.1 0.1 0.1 0.1 0.1 0.1 
0.5 0.1 0.1 0.1 0.1 0.1 0.1 0.1 0.1 
0.1 0.1 0.1 0.1 0.1 0.5 0.849609 0.5 0.849609 
0.1 0.1 0.1 0.1 0.1 0.1 0.1 0.5 0.5 
0.1 0.1 0.1 0.1 0.1 0.1 0.1 0.5 0.1 
0.1 0.1 0.1 0.1 0.1 0.1 0.1 0.1 0.1 
0.1 0.1 0.1 0.5 0.1 0.1 0.1 0.5 0.5 
0.5 0.1 0.1 0.1 0.1 0.1 0.5 0.1 0.1 
0.1 0.1 0.1 0.849609 0.1 0.1 0.985817 0.849609 0.849609 
0.5 0.1 0.5 0.5 0.5 0.849609 0.5 0.1 0.1 
0.5 0.5 0.1 0.1 0.1 0.1 0.1 0.1 0.1 
0.1 0.1 0.1 0.1 0.1 0.5 0.1 0.1 0.5 
0.5 0.1 0.1 0.1 0.1 0.1 0.5 0.1 0.1 
0.1 0.1 0.1 0.1 0.1 0.1 0.1 0.5 0.1 
0.1 0.1 0.5 0.5 0.849609 0.1 0.1 0.1 0.1 
0.849609 0.849609 0.849609 0.849609 0.1 0.1 0.1 0.1 0.1 
0.1 0.1 0.1 0.1 0.1 0.1 0.1 0.1 0.1 
0.849609 0.1 0.1 0.985817 0.849609 0.849609 0.5 0.1 0.5 
0.849609 0.849609 0.849609 0.849609 0.5 0.1 0.1 0.1 0.1 
0.1 0.1 0.1 0.1 0.1 0.1 0.1 0.1 0.1 
0.1 0.1 0.5 0.1 0.1 0.1 0.1 0.1 0.1 
0.1 0.1 0.1 0.5 0.849609 0.5 0.1 0.1 0.1 
0.1 0.1 0.1 0.1 0.1 0.1 0.1 0.1 0.1 
0.1 0.1 0.5 0.849609 0.849609 0.1 0.985817 0.5 0.849609 
0.849609 0.1 0.5 0.1 0.1 0.1 0.1 0.5 0.1 
0.1 0.1 0.1 0.1 0.1 0.1 0.1 0.5 0.1 
0.1 0.1 0.1 0.1 0.1 0.5 0.1 0.1 0.1 
0.1 0.1 0.849609 0.1 0.5 0.1 0.5 0.1 0.1 
0.1 0.1 0.1 0.1 0.1 0.1 0.1 0.1 0.1 
0.1 0.1 0.1 0.1 0.849609 0.1 0.985817 0.1 0.5 
0.5 0.5 0.1 0.5 0.1 0.1 0.1 0.849609 0.1 
0.1 0.1 0.1 0.1 0.1 0.1 0.849609 0.1 0.1 
0.1 0.1 0.5 0.849609 0.1 0.1 0.1 0.1 0.1 
0.1 0.849609 0.1 0.985817 0.849609 0.5 0.849609 0.1 0.1 
0.5 0.1 0.1 0.849609 0.5 0.1 0.1 0.1 0.1 
0.1 0.1 0.849609 0.1 0.5 0.5 0.5 0.1 0.5 
0.1 0.1 0.849609 1.312188 0.5 0.849609 0.849609 0.1 0.1 
0.1 0.5 0.1 0.1 0.5 0.1 0.1 0.1 0.1 
0.1 0.1 0.1 0.1 0.1 0.1 0.1 0.849609 0.1 
0.5 0.1 0.5 0.849609 0.5 0.1 0.1 0.849609 0.1 
0.1 0.1 0.1 0.5 0.985817 0.849609 0.5 0.1 0.1 
0.1 0.1 0.1 0.1 0.1 0.1 0.1 0.5 0.849609 
0.5 0.1 0.1 0.1 0.1 0.1 0.1 0.1 0.1 
0.1 0.1 0.1 0.849609 0.5 0.1 0.5 0.1 0.1 
0.1 0.5 0.849609 0.849609 0.5 0.1 0.1 0.849609 0.1 
0.1 0.1 0.1 0.985817 0.849609 0.1 0.5 0.1 0.1 
0.1 0.1 0.1 0.1 0.1 0.1 0.1 0.1 0.1 
0.1 0.5 0.1 0.1 0.1 0.1 0.1 0.5 0.5 
0.1 0.1 0.1 0.1 0.1 0.1 0.1 0.1 0.1 
0.1 0.1 0.1 0.1 0.1 0.849609 0.1 0.5 0.1 
0.1 0.1 0.1 0.5 0.1 0.849609 0.1 0.1 0.1 
1.301412 0.5 0.5 0.1 0.1 0.1 0.1 0.5 0.5 
0.1 0.1 0.1 0.5 0.1 0.1 0.1 0.1 0.1 
0.1 0.1 0.1 0.1 0.1 0.1 0.1 0.1 0.1 
0.1 0.1 0.1 0.5 0.849609 0.1 0.985817 0.985817 0.5 
0.1 0.1 0.1 0.1 0.1 0.1 0.1 1.301412 0.849609 
0.849609 0.5 0.849609 0.5 0.1 0.5 0.1 0.1 0.1 
0.1 0.1 0.1 0.1 0.1 0.1 0.1 0.1 0.1 
0.1 0.1 0.5 0.849609 0.5 0.1 0.1 0.1 0.1 
0.849609 0.5 0.1 0.849609 0.1 0.1 0.1 0.1 0.1 
0.985817 0.849609 0.849609 0.5 0.5 0.5 0.5 0.1 0.1 
0.1 0.1 0.1 0.1 0.1 0.1 0.1 0.1 0.1 
0.1 0.1 0.1 0.1 0.1 0.1 0.1 0.1 0.1 
0.1 0.1 0.5 0.1 0.849609 0.1 0.1 0.1 0.1 
0.985817 0.849609 0.849609 0.1 0.5 0.849609 0.5 0.5 0.5 
0.1 0.1 0.1 0.1 0.1 0.1 0.1 0.1 0.1 
0.1 0.1 0.1 0.1 0.1 0.1 0.1 0.1 0.1 
0.1 0.1 0.1 0.1 0.1 0.1 0.1 0.1 0.1 
0.1 0.1 0.1 0.1 0.1 0.5 0.1 0.1 0.1 
0.1 0.1 0.5 0.1 0.1 0.1 0.1 0.985817 0.849609 
0.849609 0.1 0.1 0.1 0.5 0.5 0.1 0.1 0.1 
0.1 0.1 0.1 0.1 0.1 0.1 0.1 0.1 0.1 
0.1 0.1 0.1 0.1 0.1 0.1 0.1 0.1 0.1 
0.1 0.849609 0.5 0.1 0.1 0.1 0.849609 0.1 0.1 
0.1 0.985817 0.849609 0.849609 0.1 0.1 0.5 0.5 0.1 
0.1 0.1 0.1 0.1 0.1 0.1 0.1 0.1 0.1 
0.1 0.1 0.1 0.1 0.1 0.1 0.5 0.849609 0.5 
0.1 0.1 0.1 0.1 0.1 0.5 0.849609 0.1 0.1 
0.1 0.985817 0.1 0.1 0.1 0.1 0.849609 0.849609 0.1 
0.1 0.849609 0.1 0.5 0.1 0.1 0.1 0.1 0.1 
0.1 0.1 0.1 0.1 0.1 0.1 0.1 0.1 0.1 
0.1 0.1 0.1 0.1 0.1 0.849609 0.1 0.1 0.985817 
0.985817 0.1 0.1 0.1 0.1 0.1 0.1 0.1 0.1 
0.849609 0.849609 0.1 0.1 0.1 0.1 0.1 0.1 0.1 
0.5 0.1 0.5 0.1 0.1 0.5 0.1 0.1 0.1 
0.1 0.1 0.1 0.1 0.1 0.1 0.1 0.1 0.1 
0.1 0.5 0.849609 0.5 0.1 0.1 0.1 0.1 0.1 
0.1 0.1 0.1 0.1 0.849609 0.1 0.1 0.1 0.1 
0.985817 0.1 0.1 0.1 0.1 0.1 0.1 0.1 0.1 
0.1 0.849609 0.1 0.849609 0.1 0.1 0.5 0.1 0.1 
0.1 0.1 0.1 0.1 0.1 0.1 0.1 0.849609 0.5 
0.5 0.1 0.1 0.1 0.849609 0.849609 0.1 0.1 0.985817 
0.1 0.1 0.1 0.1 0.1 0.1 0.1 0.1 0.1 
0.5 0.5 0.1 0.1 0.1 0.849609 0.1 0.1 0.5 
0.1 0.1 0.1 0.1 0.1 0.5 0.5 0.849609 0.5 
0.5 0.1 0.1 0.1 0.5 0.849609 0.5 0.1 0.1 
0.985817 0.1 0.1 0.1 0.1 0.1 0.1 0.1 0.1 
0.1 0.1 0.1 0.1 0.1 0.5 0.5 0.1 0.1 
0.985817 0.985817 0.5 0.1 0.5 0.1 0.1 0.1 0.1 
0.1 0.1 0.1 0.1 0.1 0.1 0.5 0.849609 0.5 
0.5 0.1 0.1 0.1 0.849609 0.5 0.1 0.1 0.1 
0.985817 0.1 0.1 0.1 0.1 0.1 0.1 0.1 0.1 
0.1 0.1 0.5 0.5 0.1 0.1 0.849609 0.5 0.5 
0.1 0.1 0.849609 0.1 0.1 0.1 0.1 0.1 0.1 
0.5 0.5 0.849609 0.5 0.5 0.849609 0.5 0.1 0.1 
0.1 0.1 0.849609 0.849609 0.1 0.849609 0.985817 0.1 0.1 
0.1 0.1 0.1 0.1 0.1 0.1 0.1 0.1 0.1 
0.5 0.849609 0.1 0.5 0.1 0.1 0.1 0.849609 0.1 
0.1 0.1 0.1 0.1 0.5 0.5 0.1 0.1 0.1 
0.1 0.1 0.5 0.1 0.1 0.1 0.1 0.1 0.1 
0.1 0.849609 0.5 0.1 0.985817 0.1 0.1 0.1 0.1 
0.1 0.1 0.1 0.1 0.1 0.1 0.849609 0.1 0.849609 
0.849609 0.849609 0.849609 0.1 0.5 0.849609 0.849609 0.849609 0.849609 
0.1 0.1 0.1 0.5 0.1 0.1 0.1 0.1 0.1 
0.5 0.1 0.1 0.5 0.1 0.1 0.849609 0.849609 0.1 
0.1 0.1 0.1 0.1 0.1 0.5 0.1 0.1 0.1 
0.1 0.1 0.1 0.1 0.1 0.5 0.1 0.1 0.5 
0.1 0.1 0.1 0.1 0.985817 0.1 0.849609 0.5 0.1 
0.1 0.1 0.1 0.1 0.1 0.1 0.1 0.1 0.1 
0.1 0.1 0.1 0.5 0.5 0.849609 0.1 0.1 0.1 
0.1 0.1 0.1 0.1 0.1 0.1 0.1 0.5 0.849609 
0.849609 0.849609 0.1 0.5 0.1 0.1 0.1 0.5 0.1 
0.1 0.1 0.1 0.1 0.1 0.1 0.1 0.1 0.1 
0.1 0.1 0.1 0.1 0.1 0.1 0.1 0.1 0.1 
0.1 0.1 0.1 0.1 0.1 0.1 0.849609 0.849609 0.849609 
0.5 0.1 0.1 0.1 0.1 0.1 0.5 0.1 0.1 
0.5 0.1 0.5 0.1 0.1 0.1 0.1 0.1 0.1 
0.1 0.1 0.1 0.1 0.1 0.1 0.1 0.1 0.1 
0.1 0.1 0.1 0.1 0.1 0.985817 0.1 0.1 0.849609 
0.1 0.1 0.1 0.1 0.1 0.5 0.1 0.1 0.1 
0.1 0.1 0.1 0.1 0.1 0.5 0.849609 0.1 0.1 
0.5 0.5 0.5 0.849609 0.849609 0.849609 0.5 0.849609 0.5 
0.1 0.1 0.1 0.1 0.1 0.1 0.1 0.1 0.1 
0.1 0.1 0.1 0.1 0.1 0.1 0.1 0.1 0.1 
0.1 0.1 0.1 0.1 0.1 0.5 0.849609 0.849609 0.1 
0.1 0.1 0.1 0.1 0.1 0.1 0.1 0.5 0.1 
0.5 0.1 0.1 0.1 0.1 0.1 0.1 0.1 0.1 
0.1 0.1 0.1 0.1 0.1 0.1 0.1 0.985817 0.1 
0.1 0.1 0.1 0.849609 0.1 0.1 0.1 0.1 0.1 
0.1 0.1 0.1 0.1 0.1 0.1 0.1 0.1 0.1 
0.5 0.1 0.1 0.1 0.849609 0.1 0.1 0.1 0.1 
0.1 0.1 0.849609 0.1 0.5 0.1 0.1 0.1 0.1 
0.1 0.1 0.1 0.1 0.1 0.1 0.1 0.1 0.1 
0.1 0.985817 0.1 0.1 0.1 0.1 0.1 0.1 0.1 
0.1 0.1 0.1 0.5 0.1 0.1 0.1 0.1 0.1 
0.1 0.1 0.1 0.849609 0.1 0.1 0.5 0.1 0.849609 
0.5 0.1 0.1 0.1 0.1 0.1 0.1 0.1 0.1 
0.985817 0.1 0.1 0.1 0.1 0.1 0.1 0.1 0.1 
0.1 0.1 0.5 0.1 0.1 0.1 0.1 0.1 0.1 
0.1 0.1 0.1 0.5 0.1 0.5 0.1 0.1 0.1 
0.1 0.1 0.1 0.1 0.1 0.1 0.1 0.1 0.1 
0.1 0.1 0.1 0.5 0.1 0.849609 0.5 0.1 0.1 
0.1 0.1 0.1 0.1 0.1 0.1 0.1 0.1 0.1 
0.985817 0.1 0.1 0.1 0.1 0.5 0.1 0.1 0.1 
0.1 0.1 0.1 0.1 0.5 0.1 0.1 0.1 0.849609 
0.849609 0.5 0.1 0.1 0.1 0.1 0.1 0.1 0.1 
0.1 0.1 0.1 0.1 0.1 0.1 0.1 0.1 0.1 
0.1 0.1 0.5 0.1 0.1 0.1 0.849609 0.1 0.1 
0.1 0.1 0.1 0.1 0.1 0.1 0.1 0.1 0.985817 
0.1 0.5 0.1 0.1 0.1 0.1 0.1 0.1 0.1 
0.5 0.5 0.1 0.1 0.1 0.1 0.1 0.1 0.5 
0.1 0.1 0.1 0.1 0.5 0.1 0.5 0.1 0.1 
0.1 0.5 0.1 0.1 0.1 0.1 0.1 0.1 0.1 
0.5 0.1 0.1 0.1 0.1 0.1 0.1 0.5 0.1 
0.1 0.985817 0.1 0.1 0.1 0.1 0.1 0.1 0.1 
0.1 0.1 0.5 0.1 0.1 0.1 0.1 0.1 0.1 
0.1 0.1 0.1 0.1 0.1 0.1 0.1 0.1 0.1 
0.1 0.1 0.1 0.1 0.1 0.1 0.1 0.1 0.1 
0.1 0.1 0.1 0.1 0.5 0.1 0.1 0.1 0.1 
0.1 0.1 0.1 0.1 0.1 0.1 0.1 0.1 0.1 
0.1 0.1 0.1 0.1 0.1 0.5 0.1 0.5 0.1 
0.1 0.1 0.1 0.1 0.1 0.849609 0.5 0.1 0.1 
0.985817 0.1 0.1 0.1 0.1 0.5 0.1 0.1 0.1 
0.1 0.1 0.1 0.1 0.1 0.1 0.1 0.1 0.1 
0.1 0.1 0.1 0.1 0.5 0.1 0.1 0.1 0.1 
0.1 0.1 0.1 0.1 0.1 0.5 0.1 0.5 0.1 
0.1 0.1 0.1 0.1 0.5 0.985817 0.1 0.1 0.1 
0.1 0.1 0.1 0.1 0.1 0.1 0.1 0.1 0.1 
0.1 0.5 0.1 0.1 0.5 0.1 0.1 0.5 0.1 
0.1 0.1 0.1 0.1 0.1 0.1 0.1 0.5 0.985817 
0.1 0.5 0.1 0.1 0.5 0.5 0.1 0.1 0.1 
0.1 0.1 0.1 0.1 0.5 0.1 0.1 0.1 0.1 
0.1 0.1 0.1 0.1 0.1 0.1 0.1 0.1 0.1 
0.1 0.1 0.1 0.1 0.1 0.1 0.5 0.1 0.1 
0.1 0.1 0.1 0.1 0.985817 0.1 0.1 0.1 0.1 
0.1 0.1 0.1 0.1 0.1 0.1 0.1 0.1 0.5 
0.849609 0.849609 0.1 0.1 0.5 0.1 0.1 0.1 0.1 
0.1 0.1 0.1 0.1 0.1 0.1 0.1 0.1 0.1 
0.1 0.1 0.1 0.1 0.1 0.5 0.1 0.1 0.5 
0.1 0.1 0.1 0.5 0.1 0.1 0.1 0.1 0.985817 
0.1 0.1 0.1 0.1 0.1 0.1 0.1 0.1 0.1 
0.1 0.1 0.1 0.1 0.1 0.1 0.1 0.1 0.1 
0.1 0.1 0.1 0.1 0.1 0.1 0.1 0.1 0.1 
0.1 0.1 0.1 0.1 0.1 0.5 0.1 0.1 0.1 
0.1 0.5 0.1 0.5 0.5 0.1 0.5 0.1 0.1 
0.1 0.1 0.1 0.1 0.1 0.1 1.201529 0.1 0.1 
0.1 0.1 0.1 0.1 0.1 0.1 0.1 0.1 0.1 
0.1 0.1 0.1 0.1 0.1 0.1 0.1 0.1 0.1 
0.1 0.1 0.1 0.1 0.1 0.1 0.1 0.1 0.849609 
0.5 0.849609 0.849609 0.5 0.5 0.1 0.1 0.1 0.1 
0.1 0.1 0.1 0.1 1.201529 0.1 0.1 0.1 0.5 
0.1 0.1 0.1 0.1 0.1 0.1 0.1 0.1 0.1 
0.1 0.1 0.1 0.1 0.1 0.1 0.1 0.1 0.1 
0.1 0.1 0.1 0.1 0.5 0.1 0.849609 0.985817 0.1 
0.1 0.1 0.1 0.1 0.5 0.1 0.985817 0.1 0.1 
0.1 0.1 0.1 0.1 0.1 0.1 0.1 0.1 0.5 
0.1 0.1 0.1 0.1 0.1 0.1 0.1 0.1 0.1 
0.1 0.1 0.1 0.1 0.1 0.1 0.1 0.1 0.1 
0.5 0.1 0.1 0.1 0.1 0.1 0.1 0.1 0.1 
0.1 0.5 0.1 0.5 0.849609 0.1 0.1 0.1 0.1 
0.1 0.1 0.985817 0.985817 0.5 0.985817 0.1 0.1 0.1 
0.1 0.5 0.1 0.1 0.1 0.1 0.1 0.1 0.1 
0.1 0.1 0.1 0.1 0.1 0.1 0.1 0.5 0.5 
0.5 0.1 0.1 0.5 0.1 0.1 0.1 0.1 0.5 
0.849609 0.1 0.849609 0.5 0.1 0.1 0.1 0.1 0.1 
0.1 0.1 1 0.1 0.1 0.1 0.985817 0.1 0.1 
0.1 0.1 0.1 0.1 0.849609 0.5 0.1 0.1 0.1 
0.1 0.1 0.1 0.1 0.1 0.1 0.1 0.1 0.1 
0.1 0.1 0.1 0.1 0.1 0.1 0.1 0.5 0.1 
0.1 0.1 0.1 0.1 0.5 0.1 0.5 0.5 0.849609 
0.1 0.1 0.1 0.1 0.1 0.1 0.1 0.1 0.5 
0.1 0.5 0.849609 0.5 0.1 0.5 0.1 0.1 0.1 
0.1 0.1 0.5 0.1 0.1 0.5 0.1 0.1 0.1 
0.1 0.1 0.1 0.1 0.1 0.1 0.1 0.1 0.1 
0.1 0.1 0.1 0.1 0.1 0.1 0.1 0.1 0.1 
0.1 0.1 0.849609 0.849609 0.5 0.5 0.1 0.1 0.1 
0.1 0.1 0.1 0.1 0.1 0.1 0.1 0.1 0.5 
0.1 0.1 0.1 0.1 0.1 0.1 0.5 0.1 0.1 
0.1 0.1 0.1 0.5 0.1 0.5 0.1 0.1 0.1 
0.1 0.1 0.1 0.1 0.1 0.1 0.1 0.1 0.1 
0.1 0.1 0.1 0.1 0.849609 0.1 0.1 0.5 0.1 
0.1 0.1 0.1 0.1 0.1 0.1 0.1 0.1 0.1 
0.1 1 0.1 0.1 0.1 0.1 0.1 0.1 0.1 
0.1 0.1 0.1 0.1 0.1 0.1 0.1 0.1 0.5 
0.5 0.1 0.1 0.1 0.5 0.1 0.1 0.1 0.1 
0.5 0.1 0.5 0.1 0.1 0.1 0.1 0.1 0.1 
0.1 0.1 0.1 0.1 0.1 0.1 0.1 0.1 0.1 
0.1 0.1 0.1 0.1 1 0.1 0.1 0.1 0.1 
0.5 0.5 0.1 0.1 0.1 0.1 0.1 0.1 0.5 
0.5 0.1 0.5 0.1 0.1 0.1 0.1 0.849609 0.849609 
0.849609 0.849609 0.849609 0.5 0.5 0.5 0.5 0.1 0.1 
0.1 0.1 0.1 0.1 0.1 0.5 0.5 0.1 0.1 
0.1 0.1 0.1 0.1 0.1 0.1 0.1 0.1 0.1 
0.1 0.1 0.1 0.1 1 0.1 0.1 0.1 0.1 
0.1 0.1 0.1 0.1 0.1 0.1 0.1 0.1 0.1 
0.1 0.1 0.1 0.1 0.1 0.5 0.849609 0.849609 0.849609 
0.5 0.1 0.1 0.1 0.1 0.1 0.1 0.1 0.1 
0.5 0.1 0.1 0.1 0.1 0.5 0.1 0.1 0.1 
0.1 0.1 0.1 0.1 0.1 0.1 0.5 0.1 0.5 
0.1 0.1 0.1 0.1 0.1 0.1 0.1 0.1 0.5 
0.985817 1.312188 0.1 0.1 0.849609 0.849609 0.1 0.1 0.1 
0.1 0.1 0.1 0.1 0.1 0.1 0.1 0.1 0.1 
0.1 0.1 0.1 0.1 0.1 0.1 0.1 0.1 0.1 
0.1 0.1 0.1 0.1 0.1 0.1 0.1 0.1 0.1 
0.1 0.1 0.1 0.1 0.1 0.1 0.1 0.849609 0.849609 
0.985817 0.849609 0.985817 0.849609 0.985817 0.849609 0.1 0.1 0.1 
0.1 0.1 0.1 0.1 0.5 0.5 0.1 0.5 0.1 
0.1 0.1 0.1 0.1 0.5 0.1 1 0.1 0.1 
0.1 0.1 0.1 0.1 0.1 0.849609 0.849609 0.849609 0.849609 
0.1 0.1 0.1 0.1 0.1 0.1 0.1 0.1 0.1 
0.1 0.1 0.1 0.1 0.1 0.1 0.1 0.1 0.1 
0.1 0.1 0.1 0.1 0.1 0.1 0.1 0.1 0.1 
0.1 0.1 0.1 0.1 0.1 0.1 0.1 0.1 0.1 
0.1 0.1 0.1 1.201529 0.849609 0.985817 0.985817 0.1 0.849609 
0.5 0.849609 0.1 0.1 0.1 0.1 0.1 0.1 0.1 
0.1 0.1 0.5 0.1 0.985817 0.985817 0.849609 0.849609 0.849609 
0.849609 0.849609 0.849609 0.849609 0.849609 0.5 0.5 0.849609 0.849609 
0.849609 0.5 0.1 0.1 0.5 0.5 0.1 0.5 0.5 
0.1 0.5 0.849609 0.5 0.1 0.1 0.1 0.5 0.5 
0.985817 0.1 0.1 0.1 0.1 0.1 0.1 0.849609 0.849609 
0.849609 0.849609 0.5 0.849609 0.849609 0.849609 0.849609 0.849609 0.849609 
0.5 0.849609 0.5 0.1 0.1 0.1 0.1 0.1 0.1 
0.1 0.5 1.312188 0.1 0.1 0.849609 0.5 0.1 0.1 
0.1 0.1 0.1 0.5 0.1 0.1 0.1 0.1 0.1 
0.1 0.1 0.1 0.1 0.5 0.1 0.1 0.1 0.1 
0.1 0.1 0.1 0.1 0.1 0.1 0.1 0.1 0.1 
0.1 0.1 0.1 0.1 0.1 0.849609 0.1 0.1 0.1 
0.1 0.5 0.849609 0.5 0.1 0.1 0.5 0.849609 0.1 
0.1 0.1 0.1 0.5 0.1 0.1 0.1 0.5 0.1 
0.5 0.849609 0.849609 0.849609 0.1 0.5 0.985817 0.1 0.849609 
0.849609 0.849609 0.849609 0.849609 0.5 0.1 0.849609 0.849609 0.849609 
0.5 0.1 0.1 0.1 0.1 0.1 0.1 0.1 0.1 
0.1 0.1 0.1 0.1 0.1 0.1 0.5 0.849609 0.849609 
0.849609 0.849609 0.849609 0.849609 0.849609 0.849609 0.849609 0.5 0.1 
1.312188 0.985817 0.1 0.1 0.5 0.1 0.1 0.1 0.849609 
0.849609 0.5 0.1 0.1 0.1 0.1 0.1 0.1 0.1 
0.1 0.5 0.1 0.1 0.1 0.849609 0.849609 0.5 0.849609 
0.1 0.1 0.1 0.1 0.1 0.5 0.1 0.1 0.1 
0.1 0.1 0.1 0.849609 0.849609 0.849609 0.1 0.849609 0.5 
0.1 0.1 0.1 0.1 0.1 0.1 0.5 0.1 0.1 
0.1 0.1 0.849609 0.849609 0.1 0.5 0.5 0.849609 0.5 
0.5 0.849609 0.5 0.849609 0.5 0.1 0.1 0.5 0.1 
0.1 0.5 0.1 0.1 0.1 0.1 0.1 0.1 0.1 
0.1 0.1 0.1 0.1 0.1 0.1 0.1 0.5 0.5 
0.1 0.1 0.1 0.1 0.1 0.1 0.1 0.1 0.1 
0.5 0.849609 0.5 0.1 0.5 0.849609 0.849609 0.849609 0.985817 
1.201529 1.201529 0.5 0.1 0.1 1.5 0.849609 0.1 0.1 
0.1 0.1 0.1 0.1 0.5 0.1 0.1 0.1 0.1 
0.5 0.1 0.1 0.1 0.1 0.1 0.1 0.1 0.1 
0.1 0.1 0.1 0.5 0.5 0.849609 0.849609 0.849609 0.849609 
0.849609 0.1 0.1 0.1 0.1 0.1 0.1 0.1 0.1 
0.1 0.5 0.1 0.849609 0.5 0.849609 0.985817 0.985817 0.1 
0.849609 0.5 0.1 0.1 0.1 0.1 0.1 0.1 0.849609 
0.5 0.1 0.1 0.1 0.1 0.1 0.1 0.1 0.1 
0.1 0.1 0.1 0.1 0.1 0.1 0.1 0.1 0.1 
0.1 0.1 0.1 0.1 0.1 0.1 0.1 0.1 0.1 
0.1 0.1 0.1 0.1 0.1 0.5 0.1 0.1 0.1 
0.1 0.1 0.1 0.1 0.1 0.1 0.1 0.849609 0.5 
0.1 0.1 1.312188 0.5 0.5 0.1 0.5 0.1 0.1 
0.1 0.1 0.1 0.1 0.1 0.1 0.1 0.1 0.1 
0.1 0.1 0.1 0.1 0.1 0.1 0.1 0.1 0.1 
0.1 0.1 0.1 0.849609 0.849609 1.201529 1.201529 1.201529 0.849609 
0.849609 0.1 0.1 0.1 0.1 0.1 0.1 0.5 0.1 
0.849609 0.849609 0.849609 0.1 0.1 0.1 0.1 0.1 0.1 
0.849609 0.849609 0.5 0.1 0.1 0.1 0.1 0.1 0.1 
0.1 0.1 0.1 0.1 0.1 0.1 0.1 0.1 0.1 
0.1 0.1 0.5 0.1 0.1 0.1 0.1 0.1 0.1 
0.1 0.1 0.1 0.1 0.1 0.1 0.1 0.1 0.1 
0.1 0.1 0.1 0.1 0.1 0.1 0.1 0.1 0.5 
0.1 0.1 0.1 0.1 0.1 0.1 0.5 0.1 1.312188 
0.849609 0.1 0.1 0.1 0.1 0.1 0.1 0.1 0.5 
0.849609 0.1 0.1 0.1 0.5 0.1 0.1 0.1 0.1 
0.1 0.1 0.1 0.1 0.1 0.1 0.1 0.5 0.849609 
0.849609 0.849609 0.849609 0.849609 1.699219 1.563225 0.1 0.1 0.5 
0.1 0.1 0.1 0.1 0.1 0.849609 0.1 0.1 0.5 
0.849609 0.849609 0.5 0.1 0.1 0.5 0.5 0.1 0.5 
0.5 0.1 0.849609 0.1 0.1 0.1 0.1 0.1 0.1 
0.1 0.1 0.1 0.1 0.1 0.1 0.1 0.1 0.1 
0.1 0.1 0.1 0.1 0.1 0.1 0.1 0.1 0.1 
0.1 0.1 0.1 0.1 0.1 0.1 0.1 0.1 0.5 
0.849609 0.5 0.1 0.1 0.1 0.1 0.1 0.5 0.849609 
0.5 0.1 0.1 0.1 0.1 0.1 0.1 0.1 0.1 
0.1 0.1 0.1 0.1 0.1 0.5 0.5 0.849609 0.5 
0.1 0.1 0.5 1.312188 0.5 0.1 0.849609 0.1 0.849609 
0.849609 0.1 0.1 0.1 0.1 0.1 0.1 0.1 0.1 
0.1 0.1 0.1 0.1 0.1 0.1 0.1 0.985817 0.849609 
0.5 0.5 0.1 0.5 0.1 0.1 0.1 0.5 0.1 
0.5 0.1 0.1 0.985817 0.849609 0.5 0.849609 0.849609 0.849609 
1.699219 1.312188 0.849609 0.5 0.1 0.1 0.1 0.5 1.563225 
0.1 0.1 1.201529 0.1 0.1 0.1 0.985817 0.849609 0.5 
0.1 0.849609 0.5 0.1 0.1 0.1 0.1 0.1 0.1 
0.5 0.849609 0.849609 0.1 0.5 0.1 0.1 0.1 0.1 
0.1 0.1 0.1 0.1 0.1 0.1 0.1 0.1 0.1 
0.1 0.1 0.1 0.1 0.1 0.1 0.5 0.1 0.1 
0.1 0.1 0.1 0.1 0.1 0.1 0.5 0.1 0.1 
0.1 0.1 0.1 0.1 0.1 0.1 0.1 0.1 0.1 
0.1 0.5 0.1 0.1 0.1 0.5 0.849609 0.5 0.1 
0.1 0.1 0.1 0.1 0.1 0.1 0.1 0.1 0.1 
0.1 0.1 0.1 0.5 0.5 0.1 0.1 1.301412 1.563225 
0.5 0.849609 0.5 0.5 0.1 0.1 0.1 0.1 0.1 
0.1 0.1 0.1 0.1 0.1 0.1 0.1 0.1 0.1 
0.1 0.1 0.1 0.1 0.1 0.1 0.1 0.1 0.1 
0.1 0.1 0.1 0.1 0.1 0.849609 0.849609 0.5 0.5 
0.5 0.1 0.1 0.1 0.1 0.1 1 1 1 
1.312188 0.985817 0.985817 0.5 0.5 0.1 0.5 0.1 0.1 
0.1 0.1 0.5 0.1 0.1 1 0.985817 0.849609 0.5 
0.1 0.5 0.849609 0.985817 1.699219 1.563225 1 0.5 0.1 
0.1 0.1 0.1 0.5 0.985817 0.849609 0.1 0.1 0.1 
0.1 0.1 0.1 0.1 0.849609 0.1 0.5 0.1 0.1 
0.5 0.1 0.5 0.5 0.1 0.1 0.1 0.985817 0.985817 