# vtk DataFile Version 5.1
vtk output
ASCII
DATASET POLYDATA
POINTS 397 float
41.173 54.9016 99.1743 41.173 54.9016 99.1743 41.6137 55.3879 98.3636 
41.6137 55.3879 98.3636 42.1319 55.5694 97.4989 42.1319 55.5694 97.4989 
42.7548 55.5088 96.6487 42.7548 55.5088 96.6487 43.3994 55.4708 95.8014 
43.3994 55.4708 95.8014 43.8462 55.4307 94.8409 43.8462 55.4307 94.8409 
44.3144 55.5917 93.8883 44.3144 55.5917 93.8883 44.6803 55.9009 92.9222 
44.6803 55.9009 92.9222 45.1411 56.3764 92.0707 45.1411 56.3764 92.0707 
45.8132 56.8061 91.3924 45.8132 56.8061 91.3924 46.6445 57.0274 90.8048 
46.6445 57.0274 90.8048 47.1056 57.1926 90.4604 47.1056 57.1926 90.4604 
47.1596 57.4318 89.928 47.1596 57.4318 89.928 48.1208 57.7946 88.8382 
48.1208 57.7946 88.8382 48.3232 58.0632 88.1259 48.3232 58.0632 88.1259 
49.1034 57.6044 87.2418 49.1034 57.6044 87.2418 49.7671 57.3421 86.4685 
49.7671 57.3421 86.4685 50.3094 56.9221 85.6554 50.3094 56.9221 85.6554 
51.054 56.7769 84.9576 51.054 56.7769 84.9576 51.6916 56.6619 84.0978 
51.6916 56.6619 84.0978 52.2384 56.2593 83.3265 52.2384 56.2593 83.3265 
52.7657 55.6174 82.675 52.7657 55.6174 82.675 53.2623 54.9527 82.034 
53.2623 54.9527 82.034 53.6916 54.3488 81.2739 53.6916 54.3488 81.2739 
54.1587 53.7062 80.5921 54.1587 53.7062 80.5921 54.6241 52.991 79.992 
54.6241 52.991 79.992 55.0954 52.3849 79.2872 55.0954 52.3849 79.2872 
55.3903 51.7401 78.5807 55.3903 51.7401 78.5807 55.4734 51.3351 77.9568 
55.4734 51.3351 77.9568 55.3427 51.2126 76.7911 55.3427 51.2126 76.7911 
55.0084 51.0323 75.8154 55.0084 51.0323 75.8154 54.5683 50.8545 74.906 
54.5683 50.8545 74.906 54.0927 50.509 74.0525 54.0927 50.509 74.0525 
53.5618 50.0898 73.2592 53.5618 50.0898 73.2592 53.1254 49.6682 72.4255 
53.1254 49.6682 72.4255 52.6874 49.3496 71.5455 52.6874 49.3496 71.5455 
52.2871 48.9541 70.6755 52.2871 48.9541 70.6755 51.9705 48.6872 69.7288 
51.9705 48.6872 69.7288 51.4897 48.2581 68.9097 51.4897 48.2581 68.9097 
51.065 47.9039 68.0553 51.065 47.9039 68.0553 50.5737 47.6844 67.1618 
50.5737 47.6844 67.1618 49.9039 47.404 66.4259 49.9039 47.404 66.4259 
49.2277 47.1916 65.6678 49.2277 47.1916 65.6678 48.4007 47.0149 65.0497 
48.4007 47.0149 65.0497 47.6884 46.9563 64.3136 47.6884 46.9563 64.3136 
47.086 46.7117 63.5134 47.086 46.7117 63.5134 46.6328 46.3501 62.6473 
46.6328 46.3501 62.6473 46.1991 45.9992 61.769 46.1991 45.9992 61.769 
45.7308 45.7906 60.8655 45.7308 45.7906 60.8655 45.2839 45.5504 59.9775 
45.2839 45.5504 59.9775 44.641 45.4173 59.1822 44.641 45.4173 59.1822 
43.9484 45.2594 58.4487 43.9484 45.2594 58.4487 43.2647 45.1102 57.8668 
43.2647 45.1102 57.8668 43.0092 45.2987 56.5734 43.0092 45.2987 56.5734 
42.7492 45.4337 55.5534 42.7492 45.4337 55.5534 42.6793 45.5933 54.4947 
42.6793 45.5933 54.4947 42.7451 45.729 53.4417 42.7451 45.729 53.4417 
42.7065 45.865 52.3712 42.7065 45.865 52.3712 42.814 45.9539 51.3441 
42.814 45.9539 51.3441 42.8096 45.9957 50.1748 42.8096 45.9957 50.1748 
43.104 45.2392 48.9962 43.104 45.2392 48.9962 43.5922 44.4859 47.7522 
43.5922 44.4859 47.7522 43.7759 43.4816 46.1883 43.7759 43.4816 46.1883 
42.8094 43.5242 44.4188 42.8094 43.5242 44.4188 42.288 43.2985 43.564 
42.288 43.2985 43.564 41.4313 43.4742 43.0627 41.4313 43.4742 43.0627 
40.5323 43.5685 42.5791 40.5323 43.5685 42.5791 39.6297 43.9207 42.2378 
39.6297 43.9207 42.2378 38.7674 44.1582 41.7751 38.7674 44.1582 41.7751 
38.012 44.0985 41.0875 38.012 44.0985 41.0875 37.1372 43.8056 40.5649 
37.1372 43.8056 40.5649 36.2966 43.8932 40.0351 36.2966 43.8932 40.0351 
35.2958 43.7366 39.7469 35.2958 43.7366 39.7469 34.4905 44.0501 39.2548 
34.4905 44.0501 39.2548 33.641 43.8553 38.6695 33.641 43.8553 38.6695 
32.8444 43.6591 38.0515 32.8444 43.6591 38.0515 32.2475 43.7131 37.2369 
32.2475 43.7131 37.2369 31.4118 43.545 36.6402 31.4118 43.545 36.6402 
30.5363 43.5088 36.1342 30.5363 43.5088 36.1342 29.7197 43.4144 35.5597 
29.7197 43.4144 35.5597 29.1726 43.3519 34.9601 29.1726 43.3519 34.9601 
29.155 43.2517 33.6112 29.155 43.2517 33.6112 28.9063 43.3176 32.62 
28.9063 43.3176 32.62 28.7447 43.3875 31.6109 28.7447 43.3875 31.6109 
28.5729 43.3116 30.6037 28.5729 43.3116 30.6037 28.2974 43.3485 29.6215 
28.2974 43.3485 29.6215 27.9264 43.2917 28.6722 27.9264 43.2917 28.6722 
27.519 43.3669 27.7347 27.519 43.3669 27.7347 27.1355 43.3006 26.7864 
27.1355 43.3006 26.7864 26.7544 43.3359 25.8371 26.7544 43.3359 25.8371 
26.3459 43.3471 24.9018 26.3459 43.3471 24.9018 25.9389 43.3123 23.9723 
25.9389 43.3123 23.9723 25.7057 43.3065 22.9779 25.7057 43.3065 22.9779 
25.4491 43.384 21.9948 25.4491 43.384 21.9948 24.9747 43.4036 21.087 
24.9747 43.4036 21.087 24.4866 43.4801 20.1942 24.4866 43.4801 20.1942 
24.0473 43.47 19.2887 24.0473 43.47 19.2887 23.4815 43.6606 18.4527 
23.4815 43.6606 18.4527 23.0313 43.8059 17.5495 23.0313 43.8059 17.5495 
22.5885 43.9578 16.6414 22.5885 43.9578 16.6414 22.0781 43.9669 15.7339 
22.0781 43.9669 15.7339 21.895 43.9315 14.7372 21.895 43.9315 14.7372 
21.6068 43.7108 13.7843 21.6068 43.7108 13.7843 21.6675 43.5964 12.7932 
21.6675 43.5964 12.7932 21.6097 43.503 11.777 21.6097 43.503 11.777 
21.6047 43.4077 10.7708 21.6047 43.4077 10.7708 21.434 43.1751 9.79182 
21.434 43.1751 9.79182 21.327 43.0325 8.7974 21.327 43.0325 8.7974 
21.1554 42.5862 7.88879 21.1554 42.5862 7.88879 20.9 42.1771 6.98583 
20.9 42.1771 6.98583 20.699 41.7458 6.09895 20.699 41.7458 6.09895 
20.1725 41.331 5.29655 20.1725 41.331 5.29655 19.5335 40.9052 4.62761 
19.5335 40.9052 4.62761 19.0166 40.6526 3.78833 19.0166 40.6526 3.78833 
18.338 40.3637 3.13381 18.338 40.3637 3.13381 17.6091 40.1129 2.47196 
17.6091 40.1129 2.47196 16.7888 39.9509 1.93195 16.7888 39.9509 1.93195 
15.872 39.6687 1.58813 15.872 39.6687 1.58813 27.8918 43.3661 35.731 
27.8918 43.3661 35.731 26.8922 43.5577 36.0271 26.8922 43.5577 36.0271 
25.9247 43.6629 36.4073 25.9247 43.6629 36.4073 24.9182 43.7829 36.7205 
24.9182 43.7829 36.7205 23.953 43.9657 37.1696 23.953 43.9657 37.1696 
22.9484 43.9005 37.468 22.9484 43.9005 37.468 21.9409 43.9364 37.7902 
21.9409 43.9364 37.7902 21.4339 43.8635 37.7553 21.4339 43.8635 37.7553 
20.3729 45.0639 37.9567 20.3729 45.0639 37.9567 19.4655 45.5833 37.779 
19.4655 45.5833 37.779 18.6133 46.0979 37.8157 18.6133 46.0979 37.8157 
17.7223 46.5992 37.8096 17.7223 46.5992 37.8096 16.8637 47.1981 37.8812 
16.8637 47.1981 37.8812 15.903 47.5752 37.7139 15.903 47.5752 37.7139 
14.9927 47.9314 37.3454 14.9927 47.9314 37.3454 14.1256 48.4212 37.0514 
14.1256 48.4212 37.0514 13.1171 48.6781 36.7673 13.1171 48.6781 36.7673 
12.1455 48.9863 36.832 12.1455 48.9863 36.832 11.1123 49.1984 36.7832 
11.1123 49.1984 36.7832 20.981 42.3961 37.4396 20.981 42.3961 37.4396 
20.3471 41.7672 36.9811 20.3471 41.7672 36.9811 19.8205 40.9889 36.6352 
19.8205 40.9889 36.6352 19.4375 40.318 36.0199 19.4375 40.318 36.0199 
18.8176 39.8588 35.395 18.8176 39.8588 35.395 18.1922 39.4313 34.7411 
18.1922 39.4313 34.7411 17.5491 38.9661 34.1244 17.5491 38.9661 34.1244 
16.9076 38.3095 33.8174 16.9076 38.3095 33.8174 16.4226 37.5062 33.5641 
16.4226 37.5062 33.5641 15.9876 36.6168 33.617 15.9876 36.6168 33.617 
44.8434 42.2137 46.0897 44.8434 42.2137 46.0897 45.3228 41.3828 45.6015 
45.3228 41.3828 45.6015 45.764 40.4915 45.1889 45.764 40.4915 45.1889 
46.3343 39.6905 44.7469 46.3343 39.6905 44.7469 46.9182 38.9196 44.2654 
46.9182 38.9196 44.2654 47.3245 38.0274 43.8691 47.3245 38.0274 43.8691 
47.7147 37.1472 43.3855 47.7147 37.1472 43.3855 48.2017 36.2298 43.0633 
48.2017 36.2298 43.0633 48.6104 34.7392 42.6553 48.6104 34.7392 42.6553 
49.9712 32.6104 43.719 49.9712 32.6104 43.719 50.4345 31.5696 43.892 
50.4345 31.5696 43.892 50.6934 30.5135 44.2634 50.6934 30.5135 44.2634 
50.8972 29.4076 44.5231 50.8972 29.4076 44.5231 50.8694 28.2695 44.569 
50.8694 28.2695 44.569 41.8888 44.4312 58.3663 41.8888 44.4312 58.3663 
40.875 44.1158 58.6718 40.875 44.1158 58.6718 39.9593 44.0597 59.2343 
39.9593 44.0597 59.2343 39.0723 44.0221 59.9257 39.0723 44.0221 59.9257 
38.3395 44.0274 60.7049 38.3395 44.0274 60.7049 37.4704 44.1093 61.3972 
37.4704 44.1093 61.3972 36.7457 43.9243 62.1834 36.7457 43.9243 62.1834 
35.6946 43.8147 62.4185 35.6946 43.8147 62.4185 42.1407 47.7886 50.0075 
42.1407 47.7886 50.0075 41.8424 48.7414 49.7384 41.8424 48.7414 49.7384 
41.411 49.631 50.0819 41.411 49.631 50.0819 40.9853 50.48 50.5272 
40.9853 50.48 50.5272 40.536 51.3795 50.7941 40.536 51.3795 50.7941 
40.0316 52.2954 50.7689 40.0316 52.2954 50.7689 39.5091 53.1909 50.8482 
39.5091 53.1909 50.8482 38.8046 53.9342 51.1015 38.8046 53.9342 51.1015 
38.2295 54.7628 51.3651 38.2295 54.7628 51.3651 37.8928 55.6394 51.8032 
37.8928 55.6394 51.8032 37.5317 56.5079 52.2458 37.5317 56.5079 52.2458 
37.3257 57.4253 52.7212 37.3257 57.4253 52.7212 38.8066 59.0843 52.9074 
38.8066 59.0843 52.9074 39.4686 59.8516 53.0032 39.4686 59.8516 53.0032 
40.0755 60.5851 53.3908 40.0755 60.5851 53.3908 40.8033 61.1823 53.7683 
40.8033 61.1823 53.7683 41.3657 61.6632 54.463 41.3657 61.6632 54.463 
41.9326 62.0509 55.2276 41.9326 62.0509 55.2276 42.652 62.4699 55.8233 
42.652 62.4699 55.8233 43.3113 63.0013 56.3633 43.3113 63.0013 56.3633 
43.9768 63.6511 56.7944 43.9768 63.6511 56.7944 44.6889 64.2648 57.2021 
44.6889 64.2648 57.2021 45.483 64.751 57.6511 45.483 64.751 57.6511 
46.0871 65.2615 58.2941 46.0871 65.2615 58.2941 46.4034 66.0289 58.885 
46.4034 66.0289 58.885 46.8665 66.8563 59.2366 46.8665 66.8563 59.2366 
47.482 67.646 59.3005 47.482 67.646 59.3005 48.2159 68.3361 59.4542 
48.2159 68.3361 59.4542 48.7844 69.0314 59.8822 48.7844 69.0314 59.8822 
49.4523 69.6724 60.2809 
LINES 397 792
OFFSETS vtktypeint64
0 2 4 6 8 10 12 14 16 
18 20 22 24 26 28 30 32 34 
36 38 40 42 44 46 48 50 52 
54 56 58 60 62 64 66 68 70 
72 74 76 78 80 82 84 86 88 
90 92 94 96 98 100 102 104 106 
108 110 112 114 116 118 120 122 124 
126 128 130 132 134 136 138 140 142 
144 146 148 150 152 154 156 158 160 
162 164 166 168 170 172 174 176 178 
180 182 184 186 188 190 192 194 196 
198 200 202 204 206 208 210 212 214 
216 218 220 222 224 226 228 230 232 
234 236 238 240 242 244 246 248 250 
252 254 256 258 260 262 264 266 268 
270 272 274 276 278 280 282 284 286 
288 290 292 294 296 298 300 302 304 
306 308 310 312 314 316 318 320 322 
324 326 328 330 332 334 336 338 340 
342 344 346 348 350 352 354 356 358 
360 362 364 366 368 370 372 374 376 
378 380 382 384 386 388 390 392 394 
396 398 400 402 404 406 408 410 412 
414 416 418 420 422 424 426 428 430 
432 434 436 438 440 442 444 446 448 
450 452 454 456 458 460 462 464 466 
468 470 472 474 476 478 480 482 484 
486 488 490 492 494 496 498 500 502 
504 506 508 510 512 514 516 518 520 
522 524 526 528 530 532 534 536 538 
540 542 544 546 548 550 552 554 556 
558 560 562 564 566 568 570 572 574 
576 578 580 582 584 586 588 590 592 
594 596 598 600 602 604 606 608 610 
612 614 616 618 620 622 624 626 628 
630 632 634 636 638 640 642 644 646 
648 650 652 654 656 658 660 662 664 
666 668 670 672 674 676 678 680 682 
684 686 688 690 692 694 696 698 700 
702 704 706 708 710 712 714 716 718 
720 722 724 726 728 730 732 734 736 
738 740 742 744 746 748 750 752 754 
756 758 760 762 764 766 768 770 772 
774 776 778 780 782 784 786 788 790 
792 
CONNECTIVITY vtktypeint64
0 1 1 2 2 3 3 4 4 
5 5 6 6 7 7 8 8 9 
9 10 10 11 11 12 11 251 12 
13 13 14 14 15 14 360 15 16 
16 17 17 18 18 19 19 20 20 
21 21 22 22 23 23 24 24 25 
25 26 26 27 27 28 28 29 28 
349 29 30 30 31 31 32 32 33 
33 34 34 35 35 36 36 37 37 
38 38 39 39 40 40 41 41 42 
42 43 43 44 44 45 45 46 46 
47 47 48 48 49 49 50 50 51 
51 52 52 53 52 161 53 54 54 
55 55 56 56 57 57 58 58 59 
59 60 59 169 60 61 61 62 62 
63 62 147 63 64 64 65 65 66 
66 67 67 68 68 69 69 70 70 
71 71 72 72 73 73 74 74 75 
75 76 76 77 77 78 78 79 79 
80 80 81 80 118 81 82 82 83 
83 84 84 85 85 86 86 87 87 
88 88 89 89 90 90 91 91 92 
92 93 93 94 94 95 95 96 96 
97 97 98 98 99 99 100 100 101 
101 102 102 103 103 104 104 105 105 
106 106 107 107 108 108 109 109 110 
110 111 111 112 112 113 113 114 114 
115 115 116 116 117 118 119 119 120 
120 121 121 122 122 123 123 124 124 
125 125 126 125 137 126 127 127 128 
128 129 129 130 130 131 131 132 132 
133 133 134 134 135 135 136 137 138 
138 139 139 140 140 141 141 142 142 
143 143 144 144 145 145 146 147 148 
148 149 149 150 150 151 151 152 152 
153 153 154 154 155 155 156 155 275 
156 157 157 158 158 159 159 160 161 
162 162 163 163 164 164 165 165 166 
166 167 167 168 169 170 170 171 171 
172 172 173 173 174 174 175 175 176 
176 177 177 178 178 179 179 180 180 
181 180 207 181 182 182 183 183 184 
184 185 185 186 186 187 187 188 188 
189 189 190 190 191 191 192 192 193 
193 194 194 195 195 196 196 197 197 
198 198 199 199 200 200 201 201 202 
202 203 202 205 203 204 205 206 207 
208 208 209 209 210 210 211 211 212 
212 213 213 214 214 215 215 216 216 
217 217 218 218 219 219 220 220 221 
221 222 222 223 223 224 224 225 225 
226 226 227 227 228 228 229 228 232 
229 230 230 231 232 233 233 234 234 
235 235 236 236 237 237 238 238 239 
239 240 240 241 241 242 242 243 243 
244 244 245 245 246 246 247 247 248 
247 256 248 249 249 250 251 252 252 
253 253 254 254 255 256 257 257 258 
258 259 259 260 260 261 261 262 261 
269 262 263 263 264 264 265 265 266 
266 267 267 268 269 270 270 271 271 
272 272 273 273 274 275 276 276 277 
277 278 278 279 279 280 280 281 281 
282 282 283 283 284 284 285 285 286 
286 287 287 288 288 289 289 290 290 
291 291 292 292 293 293 294 294 295 
295 296 296 297 297 298 298 299 299 
300 300 301 301 302 302 303 303 304 
304 305 305 306 306 307 307 308 308 
309 309 310 310 311 311 312 312 313 
313 314 314 315 315 316 316 317 317 
318 318 319 319 320 320 321 321 322 
322 323 323 324 324 325 325 326 326 
327 327 328 328 329 329 330 330 331 
331 332 332 333 333 334 334 335 335 
336 336 337 337 338 338 339 339 340 
340 341 341 342 342 343 343 344 344 
345 345 346 346 347 347 348 349 350 
350 351 351 352 352 353 353 354 354 
355 355 356 356 357 357 358 358 359 
360 361 361 362 362 363 363 364 364 
365 365 366 366 367 367 368 368 369 
369 370 370 371 371 372 372 373 373 
374 374 375 375 376 376 377 377 378 
378 379 379 380 380 381 381 382 382 
383 383 384 384 385 385 386 386 387 
387 388 388 389 389 390 390 391 391 
392 392 393 393 394 394 395 395 396 

POINT_DATA 397
FIELD FieldData 1
radius 1 397 double
1.1986190701 1.5904499389 1.4972326147 1.409661071 1.4585610067 1.4678845037 1.4535417157 1.4533046802 1.3948280664 
1.1396063223 1.0879205452 1.0879205452 1.3089318928 1.7872548642 1.7872548642 1.8527362284 1.6914437751 1.6989852473 
1.6937665386 1.8059440737 1.8761848295 1.8362293992 1.7735672212 1.8302960543 1.947346 2.1046515189 2.0078577303 
1.9576622603 1.9576622603 2.0176634693 1.9414109673 1.8469560234 1.7191431649 1.6527211012 1.673495549 1.7112731041 
1.7533832722 1.7754023385 1.7864445802 1.8671072554 1.8826534233 1.7201205152 1.5921093628 1.4981690904 1.5562292893 
1.6945108759 1.8392881201 1.9292811967 2.0640075497 2.1468918373 2.1153420656 1.9998041928 1.9998041928 2.1700868373 
2.1905461438 2.1460796327 2.0663578211 2.1531075177 2.2932859467 2.2932859467 2.7669261158 2.704654657 2.5320784831 
2.6221557489 2.7076511709 2.4240319413 2.2767863318 2.2715264857 2.345501612 2.0625825689 1.8704653687 1.7190943503 
1.6352485868 1.5390464627 1.4057516457 1.3575169534 1.3622038074 1.5018413909 1.6782724988 1.8607835847 1.8607835847 
2.1126988325 2.1802571244 2.0736679174 2.0559536573 2.0083660368 1.9261606544 1.9202192098 1.8829878817 1.9559513771 
2.098865817 2.0349210974 1.9450256173 1.8681860477 1.8594560497 1.7677948456 1.7750362567 1.7676905926 1.8338932578 
1.8574822889 1.8864424725 1.8989957339 1.9442180454 1.9048403259 1.8474675985 1.8086993517 1.8016678486 1.7952873737 
1.8203816256 1.7348826015 1.737754234 1.5943483298 1.438393385 1.2164494927 1.1806050729 1.1904384405 1.0945491284 
0.79446111314 1.6519522003 1.2959267439 1.0393798214 0.96723161368 1.1335562215 1.5163703033 1.8060813228 1.8060813228 
1.5146289862 1.2458799736 1.1491527745 1.1230967156 1.2391607321 1.2151285479 1.0197814207 0.79296480434 0.73614767874 
0.69040189224 0.93600201765 1.4878540865 1.3027955925 1.1263026957 1.0920767059 1.0859472629 1.1393352845 1.2127903148 
1.2345623272 1.0250562803 0.65891473245 2.9335765489 3.1342968108 3.2287243267 3.3683471399 3.4537370016 3.4259986695 
3.3331227628 3.266012256 3.2006663449 2.3401855667 1.9860529084 1.6792259357 1.5722725553 1.3522586871 1.7416554047 
1.5630641287 1.4017721812 1.4424159955 1.4471300615 1.3522113258 1.2055120713 0.74792042847 2.5494686343 2.5615229992 
2.278677416 2.2227826993 2.293789839 2.2678595408 2.3167124366 2.2629111057 2.3307447553 2.3597660013 2.376487921 
2.0279716403 1.2301002843 1.1563021214 1.3549275159 1.6580680107 1.7092770743 1.6591714569 1.6236227001 1.651518336 
1.6799865979 1.6718041568 1.6528712153 1.5916097198 1.34551913 1.2203826758 1.1259063026 1.2095005321 1.2605188946 
1.15987489 1.0082787573 0.99410585285 1.2891527481 1.2891527481 1.3455677452 0.85474092529 0.9955636668 0.51682756172 
2.0336182611 1.9391161614 1.997757416 2.1233231989 2.0922997708 2.0809187535 2.0836107731 2.0274380595 1.9924496055 
1.8949127825 1.9150590054 1.8491197699 1.829174303 1.9091270234 2.0219595291 1.9790611069 1.8078394155 1.739535679 
1.6939543119 1.6926651736 1.8005820163 1.8005820163 1.2553430427 0.77174627313 0.73910807808 2.0512784753 1.8458013414 
1.685329126 1.7063529714 1.8756491275 2.0667427992 2.0220112578 2.1735306841 2.1980338735 2.0354543255 1.8763148967 
1.7081735754 1.736461108 1.698744556 1.621980204 1.621980204 1.238654108 0.81389685376 0.46507671076 1.2128697509 
1.3891291508 1.3212788617 1.2291233214 1.0205129179 1.7810453539 1.7348871026 1.7434251722 1.7698945393 1.8318242351 
1.7322855148 1.3479493262 1.1516969012 1.0985233696 1.0504437877 0.9885346561 0.99049786371 1.049676865 1.6749348011 
1.6711913197 1.7052547223 1.7104190304 1.3819869273 0.64722588838 2.660099562 2.4511311849 2.3913534973 2.3496884674 
2.3992727099 2.447233558 2.4816298856 2.4861558962 2.5940153647 2.6093541189 2.5679795674 2.5247278119 2.652643286 
2.6781978207 2.6061525382 2.4720781016 2.5285780679 2.5815195578 2.5282233376 2.4601679571 2.1376394364 1.9521898818 
1.8959496375 1.9635529379 1.9629961571 1.8828739279 1.8765394279 1.8481547498 1.8221185286 1.7724207768 1.7472460713 
1.7723130127 1.856775139 1.7863786907 1.7715404234 1.6773282413 1.6717914884 1.6889683436 1.6805200184 1.7779874076 
1.6013943958 1.3546525458 1.3561667234 1.4946507725 1.7478279042 1.7756749432 1.7052126066 1.6543498027 1.7067683645 
1.7080343921 1.778317829 1.8083721364 1.8614470858 1.8565747998 1.7824365058 1.6584542055 1.4917920633 1.4419990833 
1.4363882194 1.4962542824 1.6026491669 1.6568159503 1.682786367 1.7019873278 1.6273735754 1.6201911009 1.5761886683 
1.6132974738 1.5456520809 1.5000469326 1.4279033861 1.2725807056 1.0349246846 0.60711922611 1.223862841 1.0064153804 
1.1157929345 1.2761972753 1.4109809748 1.467031594 1.3638227141 1.2474814967 1.0673502556 0.83123530991 0.45677119807 
1.6516413845 1.5206344298 1.5446906943 1.4272238834 1.4653185952 1.5392683992 1.3887129439 1.45859394 1.2227699637 
0.92999914541 0.76383989004 0.71485076657 0.97167261082 1.0617141688 1.1297157372 1.2733808201 1.2806038623 1.2351498915 
1.0736285435 1.0624681605 1.0801785678 1.1721352562 1.1834881264 1.4561449119 1.7237471491 1.6588344413 1.3170757501 
1.0581149117 0.94449471387 0.90987536896 0.84655354344 0.76948767838 0.94024099798 1.2631393188 1.2045832047 0.92765150278 
0.51171049972 
