# vtk DataFile Version 5.1
vtk output
ASCII
DATASET POLYDATA
POINTS 57 double
8 20 15 10 20 15 11 20 15 
13 20 15 15 20 15 16 20 15 
18 20 15 20 20 15 21 20 15 
23 20 15 32 35 15 33 37 15 
31 33 15 30 31 15 29 29 15 
27 28 15 26 26 15 25 24 15 
24 22 15 23 20 15 32 5 15 
33 3 15 31 7 15 30 9 15 
29 11 15 27 12 15 26 14 15 
25 16 15 24 18 15 23 20 15 
9 20 15 10.5 20 15 12 20 15 
14 20 15 15.5 20 15 17 20 15 
19 20 15 20.5 20 15 22 20 15 
32.5 36 15 32 35 15 30.5 32 15 
29.5 30 15 28 28.5 15 26.5 27 15 
25.5 25 15 24.5 23 15 23.5 21 15 
32.5 4 15 32 5 15 30.5 8 15 
29.5 10 15 28 11.5 15 26.5 13 15 
25.5 15 15 24.5 17 15 23.5 19 15 

LINES 55 108
OFFSETS vtktypeint64
0 2 4 6 8 10 12 14 16 
18 20 22 24 26 28 30 32 34 
36 38 40 42 44 46 48 50 52 
54 56 58 60 62 64 66 68 70 
72 74 76 78 80 82 84 86 88 
90 92 94 96 98 100 102 104 106 
108 
CONNECTIVITY vtktypeint64
0 30 1 30 1 31 2 31 2 
32 3 32 3 33 4 33 4 34 
5 34 5 35 6 35 6 36 7 
36 7 37 8 37 8 38 9 38 
10 39 11 39 11 40 12 40 12 
41 13 41 13 42 14 42 14 43 
15 43 15 44 16 44 16 45 17 
45 17 46 18 46 18 47 19 47 
20 48 21 48 21 49 22 49 22 
50 23 50 23 51 24 51 24 52 
25 52 25 53 26 53 26 54 27 
54 27 55 28 55 28 56 29 56 

POINT_DATA 57
FIELD FieldData 2
radius 1 57 double
1 1 1 1 1 1 1 1 1 
1 1 1 1 1 1 1 1 1 
1 1 1 1 1 1 1 1 1 
1 1 1 1 1 1 1 1 1 
1 1 1 1 1 1 1 1 1 
1 1 1 1 1 1 1 1 1 
1 1 1 
Pressure1D 1 57 double
556.25318344 556.26389817 556.26774609 556.27274588 556.27433643 556.27389791 556.27060066 556.26411317 556.25968221 
556.24841696 593.9035785 593.89521611 593.90834337 593.90985597 593.90832773 593.90392109 593.89684666 593.88727085 
593.87541272 556.24841696 596.22224868 596.21380231 596.22715542 596.22878799 596.22733825 596.22297807 596.21592383 
596.2063522 596.19449001 556.24841696 556.25907479 556.26593899 556.27068414 556.27395735 556.27421868 556.27265062 
556.2677534 556.26199656 556.25445685 593.8894481 593.9035785 593.9094922 593.90946255 593.90646825 593.90070541 
593.89236148 593.88160651 593.86875576 596.20801752 596.22224868 596.22836868 596.22843521 596.22550557 596.21977679 
596.21143892 596.2006865 596.18782216 
