# vtk DataFile Version 5.1
vtk output
ASCII
DATASET POLYDATA
POINTS 57 double
8 20 15 10 20 15 11 20 15 
13 20 15 15 20 15 16 20 15 
18 20 15 20 20 15 21 20 15 
23 20 15 32 35 15 33 37 15 
31 33 15 30 31 15 29 29 15 
27 28 15 26 26 15 25 24 15 
24 22 15 23 20 15 32 5 15 
33 3 15 31 7 15 30 9 15 
29 11 15 27 12 15 26 14 15 
25 16 15 24 18 15 23 20 15 
9 20 15 10.5 20 15 12 20 15 
14 20 15 15.5 20 15 17 20 15 
19 20 15 20.5 20 15 22 20 15 
32.5 36 15 32 35 15 30.5 32 15 
29.5 30 15 28 28.5 15 26.5 27 15 
25.5 25 15 24.5 23 15 23.5 21 15 
32.5 4 15 32 5 15 30.5 8 15 
29.5 10 15 28 11.5 15 26.5 13 15 
25.5 15 15 24.5 17 15 23.5 19 15 

LINES 55 108
OFFSETS vtktypeint64
0 2 4 6 8 10 12 14 16 
18 20 22 24 26 28 30 32 34 
36 38 40 42 44 46 48 50 52 
54 56 58 60 62 64 66 68 70 
72 74 76 78 80 82 84 86 88 
90 92 94 96 98 100 102 104 106 
108 
CONNECTIVITY vtktypeint64
0 30 1 30 1 31 2 31 2 
32 3 32 3 33 4 33 4 34 
5 34 5 35 6 35 6 36 7 
36 7 37 8 37 8 38 9 38 
10 39 11 39 11 40 12 40 12 
41 13 41 13 42 14 42 14 43 
15 43 15 44 16 44 16 45 17 
45 17 46 18 46 18 47 19 47 
20 48 21 48 21 49 22 49 22 
50 23 50 23 51 24 51 24 52 
25 52 25 53 26 53 26 54 27 
54 27 55 28 55 28 56 29 56 

POINT_DATA 57
FIELD FieldData 2
radius 1 57 double
1 1 1 1 1 1 1 1 1 
1 1 1 1 1 1 1 1 1 
1 1 1 1 1 1 1 1 1 
1 1 1 1 1 1 1 1 1 
1 1 1 1 1 1 1 1 1 
1 1 1 1 1 1 1 1 1 
1 1 1 
Pressure1D 1 57 double
714.49702324 714.4966176 714.49627697 714.49563751 714.49515079 714.49498205 714.4947977 714.4948048 714.49486671 
714.49498779 698.97488703 698.97606059 698.97344316 698.97191439 698.9703227 698.96872356 698.96719233 698.96582125 
698.9647719 714.49498779 699.80432049 699.8053962 699.80298164 699.801448 699.79987177 699.79823902 699.79666417 
699.79528814 699.79415031 714.49498779 714.49689933 714.4964493 714.49594343 714.49537093 714.49505989 714.49486489 
714.49477872 714.49483212 714.4949443 698.97624121 698.97488703 698.97269095 698.97112522 698.96951761 698.96794503 
698.96648018 698.96524741 698.96443216 699.80555022 699.80432049 699.80222859 699.80066274 699.79904843 699.79744113 
699.79594306 699.79468027 699.79376157 
