# vtk DataFile Version 5.1
vtk output
ASCII
DATASET POLYDATA
POINTS 15 double
0 20 15 10 20 15 22 13 15 
22 28 15 15 5 15 15 35 15 
38 5 15 38 35 15 5 20 15 
16 16.5 15 16 24 15 18.5 9 15 
30 9 15 18.5 31.5 15 30 31.5 15 

LINES 15 28
OFFSETS vtktypeint64
0 2 4 6 8 10 12 14 16 
18 20 22 24 26 28 
CONNECTIVITY vtktypeint64
0 8 1 8 1 9 2 9 1 
10 3 10 2 11 4 11 2 12 
6 12 3 13 5 13 3 14 7 
14 
POINT_DATA 15
FIELD FieldData 2
radius 1 15 double
4 4 3 3 2 2 3 3 4 
4 4 3 3 3 3 
Pressure1D 1 15 double
679.30503642 679.30394747 679.30358878 679.30355611 679.30371665 679.3036572 679.30499937 679.3048475 679.30457402 
679.30366749 679.30366136 679.30357022 679.30428417 679.30353904 679.30416394 
