<?xml version="1.0"?>
<VTKFile type="UnstructuredGrid"  version="0.1"  >
<UnstructuredGrid>
<Piece  NumberOfPoints="4913" NumberOfCells="24576">
<Points>
<DataArray  type="Float64"  NumberOfComponents="3"  format="ascii">0 0 0  3.88570499420166 0 0  7.77140998840332 0 0  11.65711498260498 0 0  15.54281997680664 0 0  19.4285249710083 0 0  23.31422996520996 0 0  27.19993495941162 0 0  31.08563995361328 0 0  34.97134494781494 0 0  38.8570499420166 0 0  42.74275493621826 0 0  46.62845993041992 0 0  50.51416492462158 0 0  54.39986991882324 0 0  58.2855749130249 0 0  62.17127990722656 0 0  0 5.039753913879395 0  3.88570499420166 5.039753913879395 0  7.77140998840332 5.039753913879395 0  11.65711498260498 5.039753913879395 0  15.54281997680664 5.039753913879395 0  19.4285249710083 5.039753913879395 0  23.31422996520996 5.039753913879395 0  27.19993495941162 5.039753913879395 0  31.08563995361328 5.039753913879395 0  34.97134494781494 5.039753913879395 0  38.8570499420166 5.039753913879395 0  42.74275493621826 5.039753913879395 0  46.62845993041992 5.039753913879395 0  50.51416492462158 5.039753913879395 0  54.39986991882324 5.039753913879395 0  58.2855749130249 5.039753913879395 0  62.17127990722656 5.039753913879395 0  0 10.07950782775879 0  3.88570499420166 10.07950782775879 0  7.77140998840332 10.07950782775879 0  11.65711498260498 10.07950782775879 0  15.54281997680664 10.07950782775879 0  19.4285249710083 10.07950782775879 0  23.31422996520996 10.07950782775879 0  27.19993495941162 10.07950782775879 0  31.08563995361328 10.07950782775879 0  34.97134494781494 10.07950782775879 0  38.8570499420166 10.07950782775879 0  42.74275493621826 10.07950782775879 0  46.62845993041992 10.07950782775879 0  50.51416492462158 10.07950782775879 0  54.39986991882324 10.07950782775879 0  58.2855749130249 10.07950782775879 0  62.17127990722656 10.07950782775879 0  0 15.11926174163818 0  3.88570499420166 15.11926174163818 0  7.77140998840332 15.11926174163818 0  11.65711498260498 15.11926174163818 0  15.54281997680664 15.11926174163818 0  19.4285249710083 15.11926174163818 0  23.31422996520996 15.11926174163818 0  27.19993495941162 15.11926174163818 0  31.08563995361328 15.11926174163818 0  34.97134494781494 15.11926174163818 0  38.8570499420166 15.11926174163818 0  42.74275493621826 15.11926174163818 0  46.62845993041992 15.11926174163818 0  50.51416492462158 15.11926174163818 0  54.39986991882324 15.11926174163818 0  58.2855749130249 15.11926174163818 0  62.17127990722656 15.11926174163818 0  0 20.15901565551758 0  3.88570499420166 20.15901565551758 0  7.77140998840332 20.15901565551758 0  11.65711498260498 20.15901565551758 0  15.54281997680664 20.15901565551758 0  19.4285249710083 20.15901565551758 0  23.31422996520996 20.15901565551758 0  27.19993495941162 20.15901565551758 0  31.08563995361328 20.15901565551758 0  34.97134494781494 20.15901565551758 0  38.8570499420166 20.15901565551758 0  42.74275493621826 20.15901565551758 0  46.62845993041992 20.15901565551758 0  50.51416492462158 20.15901565551758 0  54.39986991882324 20.15901565551758 0  58.2855749130249 20.15901565551758 0  62.17127990722656 20.15901565551758 0  0 25.19876956939697 0  3.88570499420166 25.19876956939697 0  7.77140998840332 25.19876956939697 0  11.65711498260498 25.19876956939697 0  15.54281997680664 25.19876956939697 0  19.4285249710083 25.19876956939697 0  23.31422996520996 25.19876956939697 0  27.19993495941162 25.19876956939697 0  31.08563995361328 25.19876956939697 0  34.97134494781494 25.19876956939697 0  38.8570499420166 25.19876956939697 0  42.74275493621826 25.19876956939697 0  46.62845993041992 25.19876956939697 0  50.51416492462158 25.19876956939697 0  54.39986991882324 25.19876956939697 0  58.2855749130249 25.19876956939697 0  62.17127990722656 25.19876956939697 0  0 30.23852348327637 0  3.88570499420166 30.23852348327637 0  7.77140998840332 30.23852348327637 0  11.65711498260498 30.23852348327637 0  15.54281997680664 30.23852348327637 0  19.4285249710083 30.23852348327637 0  23.31422996520996 30.23852348327637 0  27.19993495941162 30.23852348327637 0  31.08563995361328 30.23852348327637 0  34.97134494781494 30.23852348327637 0  38.8570499420166 30.23852348327637 0  42.74275493621826 30.23852348327637 0  46.62845993041992 30.23852348327637 0  50.51416492462158 30.23852348327637 0  54.39986991882324 30.23852348327637 0  58.2855749130249 30.23852348327637 0  62.17127990722656 30.23852348327637 0  0 35.27827739715576 0  3.88570499420166 35.27827739715576 0  7.77140998840332 35.27827739715576 0  11.65711498260498 35.27827739715576 0  15.54281997680664 35.27827739715576 0  19.4285249710083 35.27827739715576 0  23.31422996520996 35.27827739715576 0  27.19993495941162 35.27827739715576 0  31.08563995361328 35.27827739715576 0  34.97134494781494 35.27827739715576 0  38.8570499420166 35.27827739715576 0  42.74275493621826 35.27827739715576 0  46.62845993041992 35.27827739715576 0  50.51416492462158 35.27827739715576 0  54.39986991882324 35.27827739715576 0  58.2855749130249 35.27827739715576 0  62.17127990722656 35.27827739715576 0  0 40.31803131103516 0  3.88570499420166 40.31803131103516 0  7.77140998840332 40.31803131103516 0  11.65711498260498 40.31803131103516 0  15.54281997680664 40.31803131103516 0  19.4285249710083 40.31803131103516 0  23.31422996520996 40.31803131103516 0  27.19993495941162 40.31803131103516 0  31.08563995361328 40.31803131103516 0  34.97134494781494 40.31803131103516 0  38.8570499420166 40.31803131103516 0  42.74275493621826 40.31803131103516 0  46.62845993041992 40.31803131103516 0  50.51416492462158 40.31803131103516 0  54.39986991882324 40.31803131103516 0  58.2855749130249 40.31803131103516 0  62.17127990722656 40.31803131103516 0  0 45.35778522491455 0  3.88570499420166 45.35778522491455 0  7.77140998840332 45.35778522491455 0  11.65711498260498 45.35778522491455 0  15.54281997680664 45.35778522491455 0  19.4285249710083 45.35778522491455 0  23.31422996520996 45.35778522491455 0  27.19993495941162 45.35778522491455 0  31.08563995361328 45.35778522491455 0  34.97134494781494 45.35778522491455 0  38.8570499420166 45.35778522491455 0  42.74275493621826 45.35778522491455 0  46.62845993041992 45.35778522491455 0  50.51416492462158 45.35778522491455 0  54.39986991882324 45.35778522491455 0  58.2855749130249 45.35778522491455 0  62.17127990722656 45.35778522491455 0  0 50.39753913879395 0  3.88570499420166 50.39753913879395 0  7.77140998840332 50.39753913879395 0  11.65711498260498 50.39753913879395 0  15.54281997680664 50.39753913879395 0  19.4285249710083 50.39753913879395 0  23.31422996520996 50.39753913879395 0  27.19993495941162 50.39753913879395 0  31.08563995361328 50.39753913879395 0  34.97134494781494 50.39753913879395 0  38.8570499420166 50.39753913879395 0  42.74275493621826 50.39753913879395 0  46.62845993041992 50.39753913879395 0  50.51416492462158 50.39753913879395 0  54.39986991882324 50.39753913879395 0  58.2855749130249 50.39753913879395 0  62.17127990722656 50.39753913879395 0  0 55.43729305267334 0  3.88570499420166 55.43729305267334 0  7.77140998840332 55.43729305267334 0  11.65711498260498 55.43729305267334 0  15.54281997680664 55.43729305267334 0  19.4285249710083 55.43729305267334 0  23.31422996520996 55.43729305267334 0  27.19993495941162 55.43729305267334 0  31.08563995361328 55.43729305267334 0  34.97134494781494 55.43729305267334 0  38.8570499420166 55.43729305267334 0  42.74275493621826 55.43729305267334 0  46.62845993041992 55.43729305267334 0  50.51416492462158 55.43729305267334 0  54.39986991882324 55.43729305267334 0  58.2855749130249 55.43729305267334 0  62.17127990722656 55.43729305267334 0  0 60.47704696655273 0  3.88570499420166 60.47704696655273 0  7.77140998840332 60.47704696655273 0  11.65711498260498 60.47704696655273 0  15.54281997680664 60.47704696655273 0  19.4285249710083 60.47704696655273 0  23.31422996520996 60.47704696655273 0  27.19993495941162 60.47704696655273 0  31.08563995361328 60.47704696655273 0  34.97134494781494 60.47704696655273 0  38.8570499420166 60.47704696655273 0  42.74275493621826 60.47704696655273 0  46.62845993041992 60.47704696655273 0  50.51416492462158 60.47704696655273 0  54.39986991882324 60.47704696655273 0  58.2855749130249 60.47704696655273 0  62.17127990722656 60.47704696655273 0  0 65.51680088043213 0  3.88570499420166 65.51680088043213 0  7.77140998840332 65.51680088043213 0  11.65711498260498 65.51680088043213 0  15.54281997680664 65.51680088043213 0  19.4285249710083 65.51680088043213 0  23.31422996520996 65.51680088043213 0  27.19993495941162 65.51680088043213 0  31.08563995361328 65.51680088043213 0  34.97134494781494 65.51680088043213 0  38.8570499420166 65.51680088043213 0  42.74275493621826 65.51680088043213 0  46.62845993041992 65.51680088043213 0  50.51416492462158 65.51680088043213 0  54.39986991882324 65.51680088043213 0  58.2855749130249 65.51680088043213 0  62.17127990722656 65.51680088043213 0  0 70.55655479431152 0  3.88570499420166 70.55655479431152 0  7.77140998840332 70.55655479431152 0  11.65711498260498 70.55655479431152 0  15.54281997680664 70.55655479431152 0  19.4285249710083 70.55655479431152 0  23.31422996520996 70.55655479431152 0  27.19993495941162 70.55655479431152 0  31.08563995361328 70.55655479431152 0  34.97134494781494 70.55655479431152 0  38.8570499420166 70.55655479431152 0  42.74275493621826 70.55655479431152 0  46.62845993041992 70.55655479431152 0  50.51416492462158 70.55655479431152 0  54.39986991882324 70.55655479431152 0  58.2855749130249 70.55655479431152 0  62.17127990722656 70.55655479431152 0  0 75.59630870819092 0  3.88570499420166 75.59630870819092 0  7.77140998840332 75.59630870819092 0  11.65711498260498 75.59630870819092 0  15.54281997680664 75.59630870819092 0  19.4285249710083 75.59630870819092 0  23.31422996520996 75.59630870819092 0  27.19993495941162 75.59630870819092 0  31.08563995361328 75.59630870819092 0  34.97134494781494 75.59630870819092 0  38.8570499420166 75.59630870819092 0  42.742754936
[...]
<PointData  Scalars="3D Pressure"> 
<DataArray  type="Float64"  Name="3D Pressure"  format="ascii">-1.1513877951026847e+00  -5.7985036446878546e-01  -6.5137480032839468e-01  -6.5154436801563820e-01  -6.5040883431780916e-01  -6.5054133311636020e-01  -6.5052459388822692e-01  -6.5060212719405186e-01  -6.5030226911676459e-01  -6.5143948653132056e-01  -6.4706628492264029e-01  -6.6390293600479000e-01  -6.0121976325336801e-01  -8.1416241927520916e-01  -2.1416768013125081e-01  -1.3364744339428507e+00  -1.3091131333883625e+00  -5.7985035552573116e-01  4.2703773540476914e-01  1.9743987568824081e-01  2.1990783724370788e-01  2.2012645342755427e-01  2.1976327376333815e-01  2.1981203274147401e-01  2.1976527997772616e-01  2.1994860586626880e-01  2.1925477911534536e-01  2.2192003865713381e-01  2.1151543889012653e-01  2.5172378981505317e-01  1.0615926027217668e-01  5.5282105804063564e-01  -3.3891262736932187e-01  -1.0905983753828292e+00  -6.5137480141531801e-01  1.9743985927977409e-01  -7.8281270272512860e-02  -3.6562548445313238e-02  -3.8489480065972109e-02  -3.9056223094010856e-02  -3.8909231421405302e-02  -3.8971920669812567e-02  -3.8771362349847960e-02  -3.9533411227712263e-02  -3.6618962398218199e-02  -4.7803786198120528e-02  -5.8011254546335459e-03  -1.5312750375664541e-01  2.8979305927661447e-01  -6.0628129967630340e-01  -1.2764122490016117e+00  -6.5154436784938285e-01  2.1990782509214385e-01  -3.6562543021101124e-02  7.5648525697981847e-03  4.0477168762571934e-03  3.5582150054773386e-03  3.7796966270710781e-03  3.6970866985210774e-03  3.8967829237349927e-03  3.1443288130967324e-03  6.0360247537237606e-03  -5.1411257064926871e-03  3.7129580360981893e-02  -1.1158229476587836e-01  3.3394721450289938e-01  -5.5938644495639467e-01  -1.2014335674822600e+00  -6.5040883403660810e-01  2.2012644092253880e-01  -3.8489475357074032e-02  4.0477160357614379e-03  3.5518933330401422e-04  5.2346719876016993e-06  2.2992796105118123e-04  1.3549346799600980e-04  3.3813878192970499e-04  -4.1479984053529733e-04  2.4715741277896428e-03  -8.6692396632492702e-03  3.3448623219342048e-02  -1.1491958316873369e-01  3.3056673567997746e-01  -5.6366945956570957e-01  -1.2213964143197185e+00  -6.5054133338189946e-01  2.1976326145462727e-01  -3.9056218489946608e-02  3.5582141543503950e-03  5.2346599710654898e-06  -3.2289853262606056e-04  -1.1336464193034626e-04  -2.0849763974003507e-04  -4.6565235814817044e-06  -7.5808252673386864e-04  2.1332800732040118e-03  -9.0194479759976732e-03  3.3132182198737960e-02  -1.1525775087513043e-01  3.3009423235129842e-01  -5.6409243366101758e-01  -1.2176129688287018e+00  -6.5052458661607893e-01  2.1981201989474755e-01  -3.8909226747513966e-02  3.7796958026093536e-03  2.2992799929571705e-04  -1.1336459815246574e-04  9.3664679254659019e-05  8.4452791543667970e-08  2.0470373737702308e-04  -5.4817258055222878e-04  2.3384434278848443e-03  -8.8183345954423262e-03  3.3325847215922862e-02  -1.1507491271702193e-01  3.3031672194482264e-01  -5.6382318479813320e-01  -1.2180827386987798e+00  -6.5060221331305634e-01  2.1976525876181943e-01  -3.8971915858339867e-02  3.6970859759204743e-03  1.3549347345533522e-04  -2.0849760613186880e-04  8.4426934242440395e-08  -9.2446641448798688e-05  1.1147525592587256e-04  -6.4542275848433555e-04  2.2457190613554166e-03  -8.8891040942992942e-03  3.3278569693977161e-02  -1.1510986190693774e-01  3.3027551144117906e-01  -5.6388443846857916e-01  -1.2180698229174094e+00  -6.5030228507289767e-01  2.1994857002493867e-01  -3.8771353813759180e-02  3.8967818834046548e-03  3.3813880771979945e-04  -4.6564751065252590e-06  2.0470376147771038e-04  1.1147530073337113e-04  3.1198463802642636e-04  -4.3571935376513724e-04  2.4648137280708577e-03  -8.7206073391486953e-03  3.3345979060286385e-02  -1.1510600316490080e-01  3.3027402826804325e-01  -5.6387596359478265e-01  -1.2180581160795216e+00  -6.5143946960264376e-01  2.1925477889733488e-01  -3.9533404107322707e-02  3.1443272902815164e-03  -4.1479988890275054e-04  -7.5808259754278184e-04  -5.4817270717154299e-04  -6.4542286020908082e-04  -4.3571950066636253e-04  -1.1813308384179941e-03  1.6601726002022298e-03  -9.4812255901860661e-03  3.2913995553590029e-02  -1.1518361794762849e-01  3.3030164105101678e-01  -5.6387068447577782e-01  -1.2180676038489748e+00  -6.4706628567631186e-01  2.2192002406417941e-01  -3.6618958279679294e-02  6.0360244311741086e-03  2.4715744920502762e-03  2.1332804999965975e-03  2.3384437925459130e-03  2.2457194553114584e-03  2.4648140747415646e-03  1.6601730963179272e-03  4.5931028087058609e-03  -6.3461320563920672e-03  3.5350317924792006e-02  -1.1430244570857379e-01  3.3027236291016160e-01  -5.6394604292928474e-01  -1.2180361956241095e+00  -6.6390293810324164e-01  2.1151542450508440e-01  -4.7803782795197702e-02  -5.1411274948263549e-03  -8.6692409862685702e-03  -9.0194491592554080e-03  -8.8183358553936501e-03  -8.8891053265107069e-03  -8.7206086136296466e-03  -9.4812267165873265e-03  -6.3461336891434440e-03  -1.8131514849617180e-02  2.3783479589524811e-02  -1.2088421942254729e-01  3.2921467758407025e-01  -5.6349429198093204e-01  -1.2180624565839189e+00  -6.0121975778658587e-01  2.5172378123608347e-01  -5.8011169467807582e-03  3.7129583176589827e-02  3.3448626867515104e-02  3.3132185905187059e-02  3.3325850858691816e-02  3.3278573357900319e-02  3.3345982700307322e-02  3.2913999301010903e-02  3.5350321215008973e-02  2.3783484520118459e-02  6.9929359970256011e-02  -8.3569143781739838e-02  3.4209250555105092e-01  -5.6447267897227837e-01  -1.2190883129532966e+00  -8.1416242998436628e-01  1.0615923878541704e-01  -1.5312750776010534e-01  -1.1158230419839410e-01  -1.1491959177004844e-01  -1.1525775946222179e-01  -1.1507492135030296e-01  -1.1510987052643434e-01  -1.1510601178968363e-01  -1.1518362653684754e-01  -1.1430245454259537e-01  -1.2088422701839335e-01  -8.3569156029272590e-02  -2.4507219004065994e-01  2.5137537611268357e-01  -5.7355779421255892e-01  -1.2088235408613968e+00  -2.1416766714462168e-01  5.5282105734795350e-01  2.8979307595590742e-01  3.3394722534535792e-01  3.3056674740084951e-01  3.3009424410032545e-01  3.3031673364172476e-01  3.3027552315268893e-01  3.3027403997904942e-01  3.3030165275844608e-01  3.3027237458609959e-01  3.2921468966932527e-01  3.4209251509788530e-01  2.5137539535262871e-01  6.7968515570320476e-01  -4.6180234782462626e-01  -1.2607037559832857e+00  -1.3364744305031342e+00  -3.3891263019434126e-01  -6.0628128619323862e-01  -5.5938643768493379e-01  -5.6366945105839172e-01  -5.6409242522403058e-01  -5.6382317640265278e-01  -5.6388443005608846e-01  -5.6387595518546807e-01  -5.6387067607022101e-01  -5.6394603450150971e-01  -5.6349428359642972e-01  -5.6447267088664255e-01  -5.7355778320826989e-01  -4.6180234670635745e-01  -1.0072078522354568e+00  -1.1730228303947030e+00  -1.3091131275291821e+00  -1.0905983916081190e+00  -1.2764122606075452e+00  -1.2014335834356569e+00  -1.2213964280944962e+00  -1.2176129832744222e+00  -1.2180827530094533e+00  -1.2180698372424439e+00  -1.2180581304062128e+00  -1.2180676181730787e+00  -1.2180362099487057e+00  -1.2180624709548686e+00  -1.2190883269900692e+00  -1.2088235559156315e+00  -1.2607037721836800e+00  -1.1730228275017081e+00  -4.0988461357072409e-01  3.0000000000000000e+00  3.0000000000000000e+00  3.0000000000000000e+00  3.0000000000000000e+00  3.0000000000000000e+00  3.0000000000000000e+00  3.0000000000000000e+00  3.0000000000000000e+00  3.0000000000000000e+00  3.0000000000000000e+00  3.0000000000000000e+00  3.0000000000000000e+00  3.0000000000000000e+00  3.0000000000000000e+00  3.0000000000000000e+00  3.0000000000000000e+00  3.0000000000000000e+00  3.0000000000000000e+00  -4.5300330770392150e-01  -3.3014135120325605e-01  -3.0446381213977569e-01  -3.0897387857729486e-01  -3.0888281702695197e-01  -3.0880894867899478e-01  -3.0884160794134319e-01  -3.0875608863572662e-01  -3.0906830914838068e-01  -3.0792692393067789e-01  -3.1222286002084898e-01  -2.9501377002303286e-01  -3.6863120472922284e-01  -4.8703416683448290e-02  -1.3429779083647790e+00  3.0000000000000000e+00  3.0000000000000000e+00  -3.3014133220271458e-01  -2.2659166319110281e-02  5.2900014061355695e-03  -7.4866349582124302e-03  -5.8052373623901938e-03  -5.8253325895024043e-03  -5.8709037729478700e-03  -5.7961376978459232e-03  -6.0566133957578516e-03  -5.1026182677527190e-03  -8.6643759853481921e-03  5.2670531556031856e-03  -5.2622127715547432e-02  1.9672593501928198e-01  -8.4636775347061000e-01  3.0000000000000000e+00  3.0000000000000000e+00  -3.0446379202990026e-01  5.2900009673176804e-03  2.2986096356745266e-02  8.1137281783787568e-03  1.1139190885437701e-02  1.0890798635809938e-02  1.0847095095936302e-02  1.0930802895706767e-02  1.0658909019031861e-02  1.1653475963277005e-02  7.9050957965737020e-03  2.2771119207531002e-02  -3.9433967283401969e-02  2.2576276702978323e-01  -8.5476559896445103e-01  3.0000000000000000e+00  3.0000000000000000e+00  -3.0897385946654349e-01  -7.4866369654227119e-03  8.1137266058020612e-03  -5.5736243007542610e-03  -2.3235919233151837e-03  -2.7185518786377108e-03  -2.7430379499200331e-03  -2.6569485235053234e-03  -2.9277655151169171e-03  -1.9457346108146078e-03  -5.6308419194247682e-03  8.9430479028136910e-03  -5.2183091204828877e-02  2.1027334474899526e-01  -8.6765342102762133e-01  3.0000000000000000e+00  3.0000000000000000e+00  -3.0888279766023846e-01  -5.8052389812968180e-03  1.1139189907728253e-02  -2.3235913400021357e-03  7.8405338698804474e-04  3.7065131106250187e-04  3.6032856393298168e-04  4.4546944674390808e-04  1.7317928261208283e-04  1.1606680607368321e-03  -2.5447065907390860e-03  1.2106362538242340e-02  -4.9223245871528418e-02  2.1349913807653750e-01  -8.6393881578762921e-01  3.0000000000000000e+00  3.0000000000000000e+00  -3.0880893052495173e-01  -5.8253340150064264e-03  1.0890797526363797e-02  -2.7185514003518246e-03  3.7065119730762266e-04  -2.8148869471317175e-05  -3.6517123121627974e-05  4.7371570258478931e-05  -2.2444874424330111e-04  7.5998527793843574e-04  -2.9425071134525208e-03  1.1691847487999393e-02  -4.9614757214140763e-02  2.1312696212126137e-01  -8.6452063651667233e-01  3.0000000000000000e+00  3.0000000000000000e+00  -3.0884158349017715e-01  -5.8709057268771826e-03  1.0847094116998083e-02  -2.7430374989957170e-03  3.6032846492388892e-04  -3.6517119728045386e-05  -4.6091817291402798e-05  3.7243876688619496e-05  -2.3610852439598810e-04  7.5104634732083215e-04  -2.9433032334055752e-03  1.1701667119648264e-02  -4.9602171814582367e-02  2.1312454613294871e-01  -8.6448497399124058e-01  3.0000000000000000e+00  3.0000000000000000e+00  -3.0875609182887748e-01  -5.7961347373797238e-03  1.0930801040988250e-02  -2.6569479602688135e-03  4.4546928300787602e-04  4.7371581524151788e-05  3.7243895377618683e-05  1.1944374344141335e-04  -1.4956628750113890e-04  8.4032276899689970e-04  -2.8767084155933934e-03  1.1728936594329329e-02  -4.9595453147270527e-02  2.1313572399929939e-01  -8.6447511569434110e-01  3.0000000000000000e+00  3.0000000000000000e+00  -3.0906834981752601e-01  -6.0566235051647240e-03  1.0658907740886696e-02  -2.9277649358119911e-03  1.7317912196921254e-04  -2.2444877526928196e-04  -2.3610855465035915e-04  -1.4956633650354618e-04  -4.1912400970873479e-04  5.4607306976823687e-04  -3.1450548336621376e-03  1.1596417148593963e-02  -4.9605578731464005e-02  2.1314274264442390e-01  -8.6448109008557716e-01  3.0000000000000000e+00  3.0000000000000000e+00  -3.0792690906164083e-01  -5.1026210109349464e-03  1.1653474548244658e-02  -1.9457337917941540e-03  1.1606680313634668e-03  7.5998540207552513e-04  7.5104646488001275e-04  8.4032286808377436e-04  5.4607321883421757e-04  1.5568676691313239e-03  -2.0650357479419673e-03  1.2356948529188488e-02  -4.9428034662716155e-02  2.1308724503993423e-01  -8.6448219681848004e-01  3.0000000000000000e+00  3.0000000000000000e+00  -3.1222283800422723e-01  -8.6643752259018252e-03  7.9050934973803662e-03  -5.6308415746978580e-03  -2.5447070965635824e-03  -2.9425074619721923e-03  -2.9433035905339091e-03  -2.8767087889133495e-03  -3.1450551580889823e-03  -2.0650362251805219e-03  -6.0523238915395931e-03  8.5999263332699732e-03  -5.1108795528986110e-02  2.1316524576071050e-01  -8.6437343196863670e-01  3.0000000000000000e+00  3.0000000000000000e+00  -2.9501374941802566e-01  5.2670522208809823e-03  2.2771119106781795e-02  8.9430497481201559e-03  1.2106363652882975e-02  1.1691848745056936e-02  1.1701668367090861e-02  1.1728937832700556e-02  1.1596418418981279e-02  1.2356949670014338e-02  8.5999279482151005e-03  2.4833649703501538e-02  -3.9377304441034489e-02  2.1540953027353457e-01  -8.6511624920635422e-01  3.0000000000000000e+00  3.0000000000000000e+00  -3.6863119059184851e-01  -5.2622133667193642e-02  -3.9433972594914136e-02  -5.2183095067890060e-02  -4.9223250319190268e-02  -4.9614761542765097e-02  -4.9602176152585567e-02  -4.9595457488162090e-02  -4.9605583065496152e-02  -4.9428039045968139e-02  -5.1108799610473592e-02  -3.9377309978622647e-02  -1.0452779963246005e-01  1.8498041071087087e-01  -8.6514919930789791e-01  3.0000000000000000e+00  3.0000000000000000e+00  -4.8703382971362515e-02  1.9672594724528247e-01  2.2576277903460440e-01  2.1027335861334770e-01  2.1349915130224179e-01  2.1312697546421736e-01  2.1312455946896347e-01  2.1313573733245539e-01  2.1314275597601359e-01  2.1308725838111123e-01  2.1316525912421069e-01  2.1540954307077367e-01  1.8498042761456418e-01  4.2049833352899335e-01  -8.1383141363025691e-01  3.0000000000000000e+00  3.0000000000000000e+00  -1.3429779123761243e+00  -8.4636778553855241e-01  -8.5476562716173965e-01  -8.6765344817087797e-01  -8.6393884355423223e-01  -8.6452066412997508e-01  -8.6448500162371533e-01  -8.6447514332806707e-01  -8.6448111771784686e-01  -8.6448222444671574e-01  -8.6437345963441270e-01  -8.6511627677109637e-01  -8.6514922622259383e-01  -8.1383144866143875e-01  -1.4262769111812141e+00  3.0000000000000000e+00  3.0000000000000000e+00  3.0000000000000000e+00  3.0000000000000000e+00  3.0000000000000000e+00  3.0000000000000000e+00  3.0000000000000000e+00  3.0000000000000000e+00  3.0000000000000000e+00  3.0000000000000000e+00  3.0000000000000000e+00  3.0000000000000000e+00  3.0000000000000000e+00  3.0000000000000000e+00  3.0000000000000000e+00  3.0000000000000000e+00  3.0000000000000000e+00  3.0000000000000000e+00  3.0000000000000000e+00  3.0000000000000000e+00  3.0000000000000000e+00  3.0000000000000000e+00  3.0000000000000000e+00  3.0000000000000000e+00  3.0000000000000000e+00  3.0000000000000000e+00  3.0000000000000000e+00  3.0000000000000000e+00  3.0000000000000000e+00  3.0000000000000000e+00  3.0000000000000000e+00  3.0000000000000000e+00  3.0000000000000000e+00  3.0000000000000000e+00  3.0000000000000000e+00  3.0000000000000000e+00  -1.4053557371059389e+00  -8.4530731532599457e-01  -8.8403284322652442e-01  -8.8520638622005188e-01  -8.8464763549202230e-01  -8.8466525309461552e-01  -8.8471082292933345e-01  -8.8457137554944676e-01  -8.8508627112586424e-01  -8.8317134260151386e-01  -8.9023980080880816e-01  -8.6435212538011219e-01  -9.5890843075339804e-01  -6.1081504478282522e-01  -1.9134073538769849e+00  3.0000000000000000e+00  3.0000000000000000e+00  -8.4530728617201889e-01  3.2933198849381196e-01  1.6480710863221307e-01  1.7302940168787687e-01  1.7453184355330875e-01  1.7419314879537035e-01  1.7418276981880146e-01  1.7428914237461970e-01  1.7390743636955830e-01  1.7532564791724486e-01  1.7009374308062067e-01  1.8916168798043559e-01  1.2027749902593329e-01  3.7019170230860304e-01  -5.5827182014099830e-01  3.0000000000000000e+00  3.0000000000000000e+00  -8.8403282091513813e-01  1.6480709357663004e-01  -4.3430301245462231e-02  -2.2512981079689950e-02  -2.1351402673071021e-02  -2.2126235771770114e-02  -2.2034668110766459e-02  -2.1927934270512900e-02  -2.2343484796455929e-02  -2.0803384559479113e-02  -2.6488504509419954e-02  -5.6842410287818420e-03  -8.1387583625536747e-02  1.9490127323981149e-01  -8.2663860779377996e-01  3.0000000000000000e+00  3.0000000000000000e+00  -8.8520636349711379e-01  1.7302938906042362e-01  -2.2512977692474328e-02  1.0397075150856542e-03  1.2328996948748792e-03  3.6479117452724167e-04  5.4674649297857135e-04  6.3284995362621586e-04  2.2611316436677148e-04  1.7365234331763733e-03  -3.8333134106872677e-03  1.6508370880914568e-02  -5.7379128503242220e-02  2.1247102931566728e-01  -7.9046809593052292e-01  3.0000000000000000e+00  3.0000000000000000e+00  -8.8464761271215064e-01  1.7453183099274180e-01  -2.1351399433198498e-02  1.2328994606045183e-03  1.1613896487518557e-03  3.8917403022589085e-04  5.8708157507970113e-04  6.6163582146210162e-04  2.5517890032199486e-04  1.7741971511118005e-03  -3.8262923940881222e-03  1.6640654421556149e-02  -5.7692951350477431e-02  2.1346494461856735e-01  -7.9216891535678313e-01  3.0000000000000000e+00  3.0000000000000000e+00  -8.8466523004733055e-01  1.7419313620622476e-01  -2.2126232684925206e-02  3.6479082542779278e-04  3.8917391680988770e-04  -3.5159027965080028e-04  -1.6554377202853630e-04  -9.2400073443278406e-05  -4.9678173806156950e-04  1.0180766535155959e-03  -4.5774148331884880e-03  1.5855877171495752e-02  -5.8385783477360918e-02  2.1257258424654124e-01  -7.9287705918602969e-01  3.0000000000000000e+00  3.0000000000000000e+00  -8.8471080093711629e-01  1.7418275691654669e-01  -2.2034664935849525e-02  5.4674617779051590e-04  5.8708150297852887e-04  -1.6554372884158654e-04  1.7650339943610461e-05  9.1959872625788528e-05  -3.1441012623799889e-04  1.2029043277822339e-03  -4.3833941615177034e-03  1.6069496215869335e-02  -5.8181617949287376e-02  2.1279323647046677e-01  -7.9262055877388260e-01  3.0000000000000000e+00  3.0000000000000000e+00  -8.8457135128821140e-01  1.7428913010076882e-01  -2.1927931249283106e-02  6.3284966934097002e-04  6.6163578248158229e-04  -9.2400008582762074e-05  9.1959885058364994e-05  1.6482364347863008e-04  -2.3714373388127494e-04  1.2852172214355747e-03  -4.3255094140011935e-03  1.6073455968256871e-02  -5.8212132929580024e-02  2.1275882046057665e-01  -7.9266940843297695e-01  3.0000000000000000e+00  3.0000000000000000e+00  -8.8508624110505407e-01  1.7390742804477666e-01  -2.2343483069270132e-02  2.2611314362286179e-04  2.5517871189629560e-04  -4.9678174674975737e-04  -3.1441019397646433e-04  -2.3714381313384931e-04  -6.3756491682722901e-04  8.5503018096430496e-04  -4.7369403262741859e-03  1.5826706482296195e-02  -5.8270190736618856e-02  2.1276688130209109e-01  -7.9266147623625138e-01  3.0000000000000000e+00  3.0000000000000000e+00  -8.8317133858887686e-01  1.7532558137428175e-01  -2.0803374554055357e-02  1.7365228602487213e-03  1.7741972402760310e-03  1.0180769017033202e-03  1.2029045184657411e-03  1.2852173993586795e-03  8.5503043957621029e-04  2.3902676129099044e-03  -3.0958854304497688e-03  1.7134608448323020e-02  -5.7742977169418473e-02  2.1280477291717034e-01  -7.9267829658427558e-01  3.0000000000000000e+00  3.0000000000000000e+00  -8.9023978143219229e-01  1.7009370998827650e-01  -2.6488496043893001e-02  -3.8333151954508928e-03  -3.8262930252112005e-03  -4.5774153755314267e-03  -4.3833947638822384e-03  -4.3255100246116654e-03  -4.7369408567667108e-03  -3.0958862246606746e-03  -8.9904734259798717e-03  1.1317687282589271e-02  -6.1155052908299312e-02  2.1210720085756588e-01  -7.9262212567100265e-01  3.0000000000000000e+00  3.0000000000000000e+00  -8.6435210214135483e-01  1.8916167505293913e-01  -5.6842345902111714e-03  1.6508371820318515e-02  1.6640656094470182e-02  1.5855878920146234e-02  1.6069497905622107e-02  1.6073457659314883e-02  1.5826708233266325e-02  1.7134609958493269e-02  1.1317689591246212e-02  3.3655278325044967e-02  -4.3101723553393409e-02  2.1843086391133573e-01  -7.9245784330546420e-01  3.0000000000000000e+00  3.0000000000000000e+00  -9.5890841288260931e-01  1.2027748311651125e-01  -8.1387584906292290e-02  -5.7379133478502001e-02  -5.7692955923219845e-02  -5.8385787970505428e-02  -5.8181622493538053e-02  -5.8212137464193819e-02  -5.8270195248357158e-02  -5.7742981818354314e-02  -6.1155056949023942e-02  -4.3101729762845410e-02  -