<?xml version="1.0"?>
<VTKFile type="UnstructuredGrid"  version="0.1"  >
<UnstructuredGrid>
<Piece  NumberOfPoints="793" NumberOfCells="792">
<Points>
<DataArray  type="Float64"  NumberOfComponents="3"  format="ascii">41.17301940917969 54.90158081054688 99.17427825927734  41.61367034912109 55.387939453125 98.36362457275391  42.13190460205078 55.56941223144531 97.49893951416016  42.75482940673828 55.5087890625 96.64867401123047  43.39935302734375 55.4708251953125 95.80144500732422  43.84624481201172 55.43072509765625 94.84091949462891  44.31437683105469 55.59169006347656 93.88832855224609  44.6802978515625 55.90089416503906 92.92217254638672  45.14108276367188 56.37643432617188 92.07065582275391  45.81316375732422 56.80613708496094 91.39237213134766  46.64445495605469 57.02740478515625 90.80477142333984  47.10561370849609 57.19264221191406 90.46041107177734  47.15962219238281 57.43179321289062 89.92803192138672  48.120849609375 57.79463195800781 88.83817291259766  48.32323455810547 58.06321716308594 88.12586212158203  49.1033935546875 57.60444641113281 87.24175262451172  49.76712799072266 57.34208679199219 86.46854400634766  50.30937194824219 56.92213439941406 85.65544891357422  51.05402374267578 56.77688598632812 84.95763397216797  51.69163513183594 56.66188049316406 84.09784698486328  52.23841857910156 56.25927734375 83.32649993896484  52.76567840576172 55.61735534667969 82.67502593994141  53.2623291015625 54.95274353027344 82.03401947021484  53.69157409667969 54.34877014160156 81.27388763427734  54.15871429443359 53.70619201660156 80.59207916259766  54.62411499023438 52.99099731445312 79.99204254150391  55.09540557861328 52.38493347167969 79.28717803955078  55.39030456542969 51.74014282226562 78.58072662353516  55.47339630126953 51.33514404296875 77.95684051513672  55.34273529052734 51.21263122558594 76.79113006591797  55.00835418701172 51.03230285644531 75.81543731689453  54.56828308105469 50.85447692871094 74.90604400634766  54.09270477294922 50.50904846191406 74.05249786376953  53.56175231933594 50.08982849121094 73.25919342041016  53.12541198730469 49.66822814941406 72.42552947998047  52.68738555908203 49.34956359863281 71.54552459716797  52.28712463378906 48.95405578613281 70.67548370361328  51.97049713134766 48.68716430664062 69.72878265380859  51.48967742919922 48.25811767578125 68.90966033935547  51.06501007080078 47.90388488769531 68.05525970458984  50.57365417480469 47.68440246582031 67.16178131103516  49.90386199951172 47.40399169921875 66.42586517333984  49.22766876220703 47.19160461425781 65.66776275634766  48.40074157714844 47.01487731933594 65.04972076416016  47.68843078613281 46.95632934570312 64.31359100341797  47.08604431152344 46.711669921875 63.51337432861328  46.63275909423828 46.35006713867188 62.64725494384766  46.19914245605469 45.99916076660156 61.76903533935547  45.73077392578125 45.79063415527344 60.86548614501953  45.28388214111328 45.55035400390625 59.97745513916016  44.64095306396484 45.41729736328125 59.18224334716797  43.94841766357422 45.25935363769531 58.44869232177734  43.26470947265625 45.11024475097656 57.86682891845703  43.00917816162109 45.29867553710938 56.57341766357422  42.74922943115234 45.43370056152344 55.55343627929688  42.67934417724609 45.59326171875 54.49473571777344  42.74513244628906 45.72903442382812 53.44167327880859  42.70649719238281 45.86502075195312 52.37124633789062  42.81398773193359 45.95394897460938 51.34410858154297  42.80964660644531 45.99574279785156 50.17477416992188  43.10400390625 45.23921203613281 48.99615478515625  43.59224700927734 44.48585510253906 47.75221252441406  43.77590179443359 43.48162841796875 46.18826293945312  42.80941009521484 43.52423095703125 44.41884613037109  42.2879638671875 43.29853820800781 43.56404876708984  41.43128967285156 43.47416687011719 43.06266021728516  40.53226470947266 43.56846618652344 42.57907867431641  39.62973785400391 43.920654296875 42.23777008056641  38.76744842529297 44.15817260742188 41.77505493164062  38.011962890625 44.09848022460938 41.08754730224609  37.13721466064453 43.80555725097656 40.56491088867188  36.29662322998047 43.89321899414062 40.03506469726562  35.29576110839844 43.73661804199219 39.74687194824219  34.49052429199219 44.05014038085938 39.2547607421875  33.64104461669922 43.85525512695312 38.66946411132812  32.84439086914062 43.65914916992188 38.051513671875  32.24749755859375 43.71310424804688 37.23685455322266  31.41178894042969 43.5450439453125 36.64020538330078  30.53632354736328 43.50883483886719 36.13420104980469  29.71968078613281 43.4144287109375 35.55965423583984  29.172607421875 43.35191345214844 34.96007537841797  29.155029296875 43.25173950195312 33.61122894287109  28.90630340576172 43.31764221191406 32.62001800537109  28.74474334716797 43.38748168945312 31.61085510253906  28.57292938232422 43.31156921386719 30.60369110107422  28.29735565185547 43.34849548339844 29.62147521972656  27.92641448974609 43.29168701171875 28.67216491699219  27.51895141601562 43.36691284179688 27.7347412109375  27.13549041748047 43.30061340332031 26.78641510009766  26.75440216064453 43.33589172363281 25.83711242675781  26.34587860107422 43.34707641601562 24.90178680419922  25.93887329101562 43.31230163574219 23.97226715087891  25.70573425292969 43.30645751953125 22.97794342041016  25.44906616210938 43.384033203125 21.99481964111328  24.97471618652344 43.40362548828125 21.08701324462891  24.48657989501953 43.48005676269531 20.19419860839844  24.04734802246094 43.47004699707031 19.28871917724609  23.48146057128906 43.66062927246094 18.45268249511719  23.03127288818359 43.80587768554688 17.54950714111328  22.58850860595703 43.95783996582031 16.64144897460938  22.07810211181641 43.96688842773438 15.73386383056641  21.89495849609375 43.9315185546875 14.73717498779297  21.6068115234375 43.7108154296875 13.7843017578125  21.66749572753906 43.59635925292969 12.79320526123047  21.60973358154297 43.50299072265625 11.77699279785156  21.60465240478516 43.40768432617188 10.77083587646484  21.43402099609375 43.17512512207031 9.791816711425781  21.32704162597656 43.03253173828125 8.797401428222656  21.15544128417969 42.58616638183594 7.8887939453125  20.90000152587891 42.17709350585938 6.985832214355469  20.69901275634766 41.74578857421875 6.098945617675781  20.17253875732422 41.33099365234375 5.296554565429688  19.53352355957031 40.90519714355469 4.627609252929688  19.01657867431641 40.65260314941406 3.788330078125  18.33804321289062 40.36372375488281 3.133811950683594  17.60906982421875 40.1129150390625 2.471961975097656  16.78880310058594 39.950927734375 1.93194580078125  15.87204742431641 39.668701171875 1.588134765625  27.89177703857422 43.36611938476562 35.73101043701172  26.89222717285156 43.55772399902344 36.02706909179688  25.92465972900391 43.66293334960938 36.40726470947266  24.91823577880859 43.78292846679688 36.72050476074219  23.95298004150391 43.96572875976562 37.16958618164062  22.94842529296875 43.90049743652344 37.46804046630859  21.94086456298828 43.93644714355469 37.79017639160156  21.43389892578125 43.86347961425781 37.75527191162109  20.3729248046875 45.06390380859375 37.95673370361328  19.46549224853516 45.58334350585938 37.77896881103516  18.61325073242188 46.09791564941406 37.815673828125  17.72226715087891 46.59918212890625 37.80959320068359  16.86367034912109 47.19810485839844 37.88115692138672  15.90302276611328 47.57522583007812 37.71392059326172  14.99274444580078 47.93138122558594 37.34535217285156  14.12557220458984 48.42118835449219 37.05139923095703  13.11714172363281 48.6781005859375 36.767333984375  12.14547729492188 48.98629760742188 36.83195495605469  11.11229705810547 49.19841003417969 36.78321075439453  20.98097229003906 42.39607238769531 37.43961334228516  20.34706878662109 41.76715087890625 36.98112487792969  19.82048034667969 40.98892211914062 36.63520812988281  19.43752288818359 40.31796264648438 36.01990509033203  18.81759643554688 39.85879516601562 35.39501953125  18.19223022460938 39.43130493164062 34.74107360839844  17.54913330078125 38.96609497070312 34.12442779541016  16.90763854980469 38.30947875976562 33.81741333007812  16.42259979248047 37.50619506835938 33.5640869140625  15.98764801025391 36.61677551269531 33.61703491210938  44.84344482421875 42.21365356445312 46.08973693847656  45.32281494140625 41.38276672363281 45.60145568847656  45.76399993896484 40.49147033691406 45.18894958496094  46.33434295654297 39.69046020507812 44.74692535400391  46.91824340820312 38.91961669921875 44.265380859375  47.32445526123047 38.02743530273438 43.86914825439453  47.71465301513672 37.14724731445312 43.38545227050781  48.20168304443359 36.22979736328125 43.06333160400391  48.61042022705078 34.73918151855469 42.65534973144531  49.97121429443359 32.6103515625 43.71902465820312  50.43445587158203 31.56956481933594 43.89201354980469  50.69340515136719 30.5135498046875 44.26335144042969  50.89715576171875 29.40756225585938 44.52310943603516  50.86939239501953 28.26945495605469 44.56895446777344  41.88880157470703 44.43115234375 58.36629486083984  40.87496948242188 44.1158447265625 58.67177581787109  39.95929718017578 44.0596923828125 59.23433685302734  39.072265625 44.02206420898438 59.92565155029297  38.33949279785156 44.02742004394531 60.70490264892578  37.47035217285156 44.1092529296875 61.39720916748047  36.74574279785156 43.92431640625 62.18337249755859  35.69463348388672 43.81471252441406 62.41852569580078  42.14067840576172 47.78855895996094 50.00746154785156  41.8424072265625 48.74140930175781 49.73838806152344  41.41098022460938 49.63096618652344 50.08186340332031  40.98526000976562 50.47999572753906 50.52721405029297  40.53600311279297 51.37947082519531 50.79412841796875  40.03159332275391 52.29539489746094 50.76885986328125  39.50907135009766 53.19091796875 50.84817504882812  38.80458068847656 53.93415832519531 51.10148620605469  38.22945404052734 54.76277160644531 51.36506652832031  37.89275360107422 55.63943481445312 51.80323028564453  37.53165435791016 56.507873535
[...]
<PointData  Scalars="1D Pressure"> 
<DataArray  type="Float64"  Name="1D Pressure"  format="ascii">-2.8143492780410265e+03  6.4473180847976312e+02  9.7532110827194276e+02  1.0068950481068435e+03  1.0083214194401211e+03  1.0083525631649821e+03  1.0083553644394632e+03  1.0083601118312611e+03  1.0083829500301383e+03  1.0084420084683704e+03  1.0084669930117775e+03  1.0084541259865202e+03  1.0084075651772854e+03  1.0082766085264466e+03  1.0082576119247126e+03  1.0082462210411478e+03  1.0082669799825497e+03  1.0082732439849132e+03  1.0082676354616435e+03  1.0082440399880960e+03  1.0082290185262729e+03  1.0082329016300504e+03  1.0082383681906252e+03  1.0082232097438521e+03  1.0081920514466892e+03  1.0081684727597452e+03  1.0081754545531193e+03  1.0081895431797166e+03  1.0082031883708230e+03  1.0081872326257890e+03  1.0082016555167229e+03  1.0082277663056425e+03  1.0082595136887825e+03  1.0082803081811552e+03  1.0082791506821090e+03  1.0082692713286449e+03  1.0082579481415730e+03  1.0082491224131211e+03  1.0082407133445402e+03  1.0082289646643475e+03  1.0082338235698544e+03  1.0082673119824271e+03  1.0083046960355549e+03  1.0083252114653293e+03  1.0083087701439697e+03  1.0082720009197452e+03  1.0082303881860217e+03  1.0081935467807955e+03  1.0081619477133239e+03  1.0081451156491291e+03  1.0081479430073849e+03  1.0081639948734671e+03  1.0081724606201586e+03  1.0081333527271855e+03  1.0081252409010997e+03  1.0081312345982271e+03  1.0081357175439455e+03  1.0081175242935163e+03  1.0080873376523700e+03  1.0080463567568489e+03  1.0079711168299787e+03  1.0079611959555456e+03  1.0079720919745434e+03  1.0079812935818549e+03  1.0079889067455048e+03  1.0080246214833703e+03  1.0080637049788872e+03  1.0080827104538288e+03  1.0080986007899334e+03  1.0081471878890993e+03  1.0082105987984498e+03  1.0082579465749657e+03  1.0082937428081575e+03  1.0083275142141092e+03  1.0083622454254452e+03  1.0083780125460469e+03  1.0083700851965613e+03  1.0083313337380956e+03  1.0082819934343667e+03  1.0082395240955854e+03  1.0082243002543001e+03  1.0081585201122662e+03  1.0081409228063789e+03  1.0081489174131071e+03  1.0081603132366802e+03  1.0081746212710134e+03  1.0081911306648110e+03  1.0082000054687405e+03  1.0081997536637872e+03  1.0081815990481603e+03  1.0081628223233399e+03  1.0081688745350930e+03  1.0081891592044457e+03  1.0082105093266703e+03  1.0082260176978665e+03  1.0082424219851337e+03  1.0082465394157108e+03  1.0082430599193926e+03  1.0082307019168086e+03  1.0082208436855561e+03  1.0082126204767694e+03  1.0082066731682752e+03  1.0082021813168848e+03  1.0082092622579379e+03  1.0082231918064133e+03  1.0082338235398370e+03  1.0082384865287622e+03  1.0082402495284445e+03  1.0082420532551970e+03  1.0082561634096694e+03  1.0082728396618442e+03  1.0083082827249413e+03  1.0083551175641473e+03  1.0084137294539646e+03  1.0084834762387555e+03  1.0108943197019312e+03  9.6795148560098255e+02  -2.6967965301874654e+04  1.0083055338329214e+03  1.0083947644809502e+03  1.0084744435797464e+03  1.0085037216719392e+03  1.0084461889081139e+03  1.0083346052821086e+03  1.0082677888715483e+03  1.0082628529407621e+03  1.0083368844059545e+03  1.0084111490345846e+03  1.0084467928742451e+03  1.0084528375542915e+03  1.0084303012065270e+03  1.0084385900702207e+03  1.0084940819888573e+03  1.0085777452719869e+03  1.0077435046638832e+03  1.0767967437352115e+03  -1.3974001664044685e+04  1.0083357436947784e+03  1.0083950967715629e+03  1.0084492403146645e+03  1.0084696611504841e+03  1.0084697168950272e+03  1.0084538196278406e+03  1.0085355746349708e+03  1.0128710248955788e+03  1.0888356155638332e+03  -4.4267933365054603e+04  1.0078788951637538e+03  1.0078239972082537e+03  1.0077829586448801e+03  1.0077518304204925e+03  1.0077346963939933e+03  1.0077345519240561e+03  1.0077478675389632e+03  1.0077699640588186e+03  1.0078277150670525e+03  1.0079643114604411e+03  1.0070523515584265e+03  9.9107144563318855e+02  7.4963359319112794e+02  -2.0664818889250041e+03  1.0082567430541907e+03  1.0083132890207220e+03  1.0083543040987677e+03  1.0083606971016111e+03  1.0084580248960621e+03  1.0104942340550652e+03  9.4659658661258197e+02  -1.8391163144333401e+04  1.0080217528810909e+03  1.0080266518232773e+03  1.0080602987393274e+03  1.0080838418026201e+03  1.0080853181698329e+03  1.0080848514042588e+03  1.0080810832439752e+03  1.0080806295877289e+03  1.0080741817700958e+03  1.0080740936078121e+03  1.0080958206557914e+03  1.0081606881993573e+03  1.0084132121542403e+03  1.0084315561336905e+03  1.0083768842993261e+03  1.0083100484248598e+03  1.0082840791989728e+03  1.0082867253759074e+03  1.0082934129885906e+03  1.0082898656613363e+03  1.0082843713230972e+03  1.0082859370406147e+03  1.0082958482572942e+03  1.0083209585568943e+03  1.0083761245505308e+03  1.0084242145550930e+03  1.0084513310681056e+03  1.0084377763894460e+03  1.0084277841544015e+03  1.0084536955175595e+03  1.0084952214972401e+03  1.0085083969776489e+03  1.0088986310997822e+03  1.0092782390540571e+03  9.7336896133870277e+02  -1.5078641011211797e+04  8.9175411541564074e+02  -4.9666727277637765e+04  1.0081725825052249e+03  1.0081820959985845e+03  1.0081719677203363e+03  1.0081536126057168e+03  1.0081492264352686e+03  1.0081511085838672e+03  1.0081562139451914e+03  1.0081678798918059e+03  1.0081821277499321e+03  1.0081999176319011e+03  1.0082090595515962e+03  1.0082202254757534e+03  1.0082219846108958e+03  1.0082043750265655e+03  1.0081889787063641e+03  1.0082001922180332e+03  1.0082321473424740e+03  1.0082572819835142e+03  1.0082709814586370e+03  1.0082668499358950e+03  1.0082504632055271e+03  1.0082553672063943e+03  1.0082827358313906e+03  9.7699099819017999e+02  -1.9756090587798521e+04  1.0082001533978950e+03  1.0082257546259162e+03  1.0082605566556384e+03  1.0082531961740291e+03  1.0082120947164975e+03  1.0081742965276263e+03  1.0081564682347582e+03  1.0081370799362335e+03  1.0081378329169543e+03  1.0081674310037621e+03  1.0082138121393169e+03  1.0082555716207731e+03  1.0082683744273752e+03  1.0082799853123297e+03  1.0082982855585066e+03  1.0083213132677660e+03  1.0088595576800024e+03  6.4008399632007740e+02  -7.4512017026857298e+04  1.0084270878872950e+03  1.0084014070188033e+03  1.0061125332533278e+03  8.0643865786315916e+02  -7.6010589773573693e+03  1.0082697010757321e+03  1.0082642011981798e+03  1.0082610220100039e+03  1.0082537492925123e+03  1.0082497423118514e+03  1.0082778675493477e+03  1.0083911178085352e+03  1.0084447341460935e+03  1.0084726755127242e+03  1.0084866312487668e+03  1.0088481513059789e+03  8.2413973761527416e+02  -7.0717139332057577e+03  1.0082894329999657e+03  1.0084505711669478e+03  1.0110804624464143e+03  1.0465208371138751e+03  1.6198448338957835e+03  -6.7537905865424924e+04  1.0079547724333819e+03  1.0080012713551204e+03  1.0080322978591827e+03  1.0080449504206700e+03  1.0080413078122575e+03  1.0080305556593861e+03  1.0080194238712123e+03  1.0080080853501677e+03  1.0079934548721326e+03  1.0079862885072132e+03  1.0079860390084821e+03  1.0079832965631948e+03  1.0079728194251479e+03  1.0079711478437258e+03  1.0079813210235835e+03  1.0079957055748168e+03  1.0079988796909275e+03  1.0080015222754618e+03  1.0080180881035112e+03  1.0080523449233191e+03  1.0081112855318481e+03  1.0081636946264690e+03  1.0081886003197009e+03  1.0081893046394533e+03  1.0081931920857479e+03  1.0082056316110782e+03  1.0082138344011797e+03  1.0082220587253005e+03  1.0082319343349858e+03  1.0082430077303867e+03  1.0082478293497817e+03  1.0082425582760764e+03  1.0082340308621432e+03  1.0082409113288667e+03  1.0082527131364354e+03  1.0082700880313967e+03  1.0082758916833753e+03  1.0082739388628754e+03  1.0082702928160001e+03  1.0082704512003731e+03  1.0083094801388542e+03  1.0083635257519481e+03  1.0083657614743869e+03  1.0083209377397632e+03  1.0082715311325840e+03  1.0082581668644272e+03  1.0082673176974820e+03  1.0082750923523098e+03  1.0082688660051497e+03  1.0082605103977502e+03  1.0082459097657060e+03  1.0082335175954721e+03  1.0082239662772292e+03  1.0082274401127554e+03  1.0082487602440643e+03  1.0082842654092923e+03  1.0083251094173396e+03  1.0083480732236598e+03  1.0083482781928068e+03  1.0083296829038612e+03  1.0083034897705430e+03  1.0082861844471990e+03  1.0082773709287560e+03  1.0082764232599233e+03  1.0082882819038006e+03  1.0082968948395787e+03  1.0083039299717593e+03  1.0083053789883816e+03  1.0083195415210174e+03  1.0083457655182964e+03  1.0086669528583498e+03  1.0164644542864031e+03  1.2199411954168791e+03  -5.9837332922977410e+04  1.0084093976113782e+03  1.0084857369453641e+03  1.0084606907697398e+03  1.0084124785346135e+03  1.0083735503005397e+03  1.0083615399387778e+03  1.0083857225326396e+03  1.0084245495630443e+03  1.0072263613843268e+03  9.2027563173343594e+02  -1.5294248919291928e+05  1.0082921713069560e+03  1.0083202877082352e+03  1.0083321982717076e+03  1.0083505883452162e+03  1.0083489958014201e+03  1.0083424738128357e+03  1.0083629882184480e+03  1.0083765136813122e+03  1.0084306422894471e+03  1.0085141698402965e+03  1.0085776459618460e+03  1.0085905903150394e+03  1.0085202885745761e+03  1.0084850486351637e+03  1.0084586838323411e+03  1.0084237591557218e+03  1.0084163642511410e+03  1.0084342319763600e+03  1.0084725529352251e+03  1.0084815569315358e+03  1.0084745188377591e+03  1.0084517049188706e+03  1.0084230909131450e+03  1.0083534723470186e+03  1.0083046034621335e+03  1.0083184919997309e+03  1.0083968202290745e+03  1.0084767114606758e+03  1.0085168516494786e+03  1.0085335968711644e+03  1.0085534259012891e+03  1.0085701494812754e+03  1.0085091623039099e+03  1.0084011114670146e+03  1.0127158710198592e+03  2.0160746888844446e+03  -3.5383068835989817e+05  -1.6643279214208341e+01  8.8773726052857410e+02  1.0005099107515764e+03  1.0081295118672763e+03  1.0083493821912157e+03  1.0083537234315588e+03  1.0083569556292937e+03  1.0083678365523688e+03  1.0084057586304186e+03  1.0084595633812327e+03  1.0084639390687310e+03  1.0084310988971326e+03  1.0084439884254826e+03  1.0083325933388625e+03  1.0082640643274073e+03  1.0082473230315910e+03  1.0082735454069222e+03  1.0082562324987030e+03  1.0082720116774165e+03  1.0082721131953557e+03  1.0082571451739748e+03  1.0082339880456842e+03  1.0082296474495354e+03  1.0082373024872661e+03  1.0082326932476055e+03  1.0082089350323238e+03  1.0081761599530346e+03  1.0081699556067750e+03  1.0081822937156883e+03  1.0081954468137524e+03  1.0081904898074006e+03  1.0082654636847578e+03  1.0081923846911116e+03  1.0082140890627198e+03  1.0082423926592239e+03  1.0082726648693498e+03  1.0082816959016899e+03  1.0082742943502088e+03  1.0082637894572065e+03  1.0082530645305765e+03  1.0082452334380604e+03  1.0082346021859787e+03  1.0082283123620953e+03  1.0082485800862778e+03  1.0082869576116959e+03  1.0083187829175799e+03  1.0083200558363030e+03  1.0082898405156375e+03  1.0082515598883897e+03  1.0082107772470168e+03  1.0081755373181259e+03  1.0081517127992578e+03  1.0081444901193097e+03  1.0081548742302817e+03  1.0081691411571533e+03  1.0081483902021187e+03  1.0082077279972310e+03  1.0081272908626396e+03  1.0081273713930818e+03  1.0081355201616715e+03  1.0081283709744793e+03  1.0081032305790745e+03  1.0080695959128589e+03  1.0079983392187906e+03  1.0080391174207691e+03  1.0079605136064525e+03  1.0079717635285737e+03  1.0079829564333224e+03  1.0079281533109306e+03  1.0079830099964524e+03  1.0080024840297241e+03  1.0080460901746874e+03  1.0080749738836236e+03  1.0080892876516624e+03  1.0081168547532626e+03  1.0081795215735702e+03  1.0082360722572902e+03  1.0082756427074080e+03  1.0083107733065461e+03  1.0083464526088164e+03  1.0083716274288722e+03  1.0083776732356356e+03  1.0083508188619568e+03  1.0083073331714379e+03  1.0082585326977293e+03  1.0082303786726937e+03  1.0081876876540011e+03  1.0082614974557280e+03  1.0081463504415235e+03  1.0081435058505026e+03  1.0081544840031025e+03  1.0081672613706210e+03  1.0081825684706680e+03  1.0081966436698233e+03  1.0082018339247444e+03  1.0081917729698223e+03  1.0081695117483894e+03  1.0081630916359408e+03  1.0081776326966063e+03  1.0081998503930517e+03  1.0082184616956760e+03  1.0082351543728062e+03  1.0082455956083520e+03  1.0082459774057567e+03  1.0082367327445666e+03  1.0082253570505785e+03  1.0082163372220766e+03  1.0082094711347604e+03  1.0082038720698290e+03  1.0082041670880393e+03  1.0082162983884147e+03  1.0082292984762444e+03  1.0082366245023518e+03  1.0082396549167379e+03  1.0082405411172177e+03  1.0082475111827990e+03  1.0082635619498689e+03  1.0082891514505881e+03  1.0083282168573535e+03  1.0083812960473580e+03  1.0084317158985837e+03  1.0089004551540280e+03  1.0138406418516955e+03  2.9635147917040439e+02  1.0083468978763310e+03  1.0084300699970095e+03  1.0084978017502845e+03  1.0084836402006879e+03  1.0083884919817804e+03  1.0082895253234861e+03  1.0082635437684946e+03  1.0082818518823614e+03  1.0082831206689324e+03  1.0083755285438082e+03  1.0084303587393604e+03  1.0084542703050515e+03  1.0084389594019373e+03  1.0084305083442143e+03  1.0084575064293812e+03  1.0085317447053743e+03  1.0086119190216984e+03  1.0116479108267609e+03  -3.3401037772474484e+02  1.0083629726350409e+03  1.0084207918296926e+03  1.0084634744106331e+03  1.0084712463883723e+03  1.0084620707025653e+03  1.0084496854133803e+03  1.0092373377928810e+03  1.0277770099961010e+03  1.2276761900920130e+03  1.0078498161418408e+03  1.0078016472347347e+03  1.0077659980528833e+03  1.0077413372824423e+03  1.0077327679723325e+03  1.0077400231340821e+03  1.0077576135136388e+03  1.0077930284848493e+03  1.0078918802803520e+03  1.0078851195841947e+03  1.0078111260579893e+03  1.0042068363365727e+03  9.4004431924973517e+02  1.5223230334486720e+02  1.0082866753206139e+03  1.0083338213343555e+03  1.0083604505944959e+03  1.0083730862766887e+03  1.0089063113544369e+03  1.0101017060299919e+03  3.8857565330339645e+02  1.0080210526528457e+03  1.0080398757119897e+03  1.0080753731178711e+03  1.0080855650199376e+03  1.0080853977051679e+03  1.0080830714241331e+03  1.0080807597021314e+03  1.0080779133198309e+03  1.0080723685549744e+03  1.0080810721682884e+03  1.0081233918071091e+03  1.0082418553453446e+03  1.0081661719760243e+03  1.0084311420884020e+03  1.0084043970746080e+03  1.0083406179949408e+03  1.0082929241057645e+03  1.0082831375878652e+03  1.0082904798796577e+03  1.0082927778887704e+03  1.0082864473421442e+03  1.0082842876898417e+03  1.0082894522128200e+03  1.0083063473928075e+03  1.0083425499936923e+03  1.0084006908663721e+03  1.0084395130677441e+03  1.0084479338928980e+03  1.0084308309637099e+03  1.0084354728716904e+03  1.0084773088414274e+03  1.0084995165216742e+03  1.0086044397178902e+03  1.0091169979634095e+03  1.0097828024095978e+03  1.0003612977978614e+03  5.8019132073265246e+02  8.1662733901921902e+03  1.0081787636358417e+03  1.0081792951920470e+03  1.0081623889326474e+03  1.0081500807339878e+03  1.0081498087799772e+03  1.0081530071186683e+03  1.0081617210968183e+03  1.0081743923281255e+03  1.0081906871841953e+03  1.0082050438443986e+03  1.0082142729850127e+03  1.0082232125025528e+03  1.0082150053511174e+03  1.0081938336274421e+03  1.0081916106383093e+03  1.0082155906331443e+03  1.0082452772367077e+03  1.0082661767825510e+03  1.0082711030042244e+03  1.0082572911066563e+03  1.0082496858997160e+03  1.0084298673355769e+03  1.0082128403645695e+03  1.0072824498485724e+03  2.2805582726781345e+03  1.0082067768747736e+03  1.0082460318861940e+03  1.0082625093564618e+03  1.0082327572891304e+03  1.0081895220837347e+03  1.0081647752709798e+03  1.0081448488726594e+03  1.0081346069009056e+03  1.0081486511649475e+03  1.0081883656575462e+03  1.0082374388109457e+03  1.0082637481892485e+03  1.0082738079723240e+03  1.0082875836334224e+03  1.0083071600588621e+03  1.0084454680936582e+03  1.0082876412280905e+03  1.0181185537790057e+03  1.0858009540214165e+04  1.0084046297817816e+03  1.0083175199732501e+03  9.8376971666296515e+02  -1.8268213549569958e+02  1.0082649719321041e+03  1.0082631813694438e+03  1.0082574256768306e+03  1.0082503171019964e+03  1.0082584278532802e+03  1.0083343989473443e+03  1.0082783630065064e+03  1.0084151325630575e+03  1.0084604905600538e+03  1.0084817811284806e+03  1.0085809646231324e+03  9.9625953532856272e+02  -4.7130280544564653e+02  1.0083201698572077e+03  1.0089974717631467e+03  1.0189039841555854e+03  1.1383412494284485e+03  4.3961783027023448e+03  1.0079777302091318e+03  1.0080190283794279e+03  1.0080405580580766e+03  1.0080446803622937e+03  1.0080363656893065e+03  1.0080249913476506e+03  1.0080140202418831e+03  1.0080006924400200e+03  1.0079887647964169e+03  1.0079859700817327e+03  1.0079855161413868e+03  1.0079775695379540e+03  1.0079704813297545e+03  1.0079752937654214e+03  1.0079884877486226e+03  1.0079983168182949e+03  1.0079991318006447e+03  1.0080078978630212e+03  1.0080326534897363e+03  1.0080795603816455e+03  1.0081379950534903e+03  1.0081795498866377e+03  1.0081898531561461e+03  1.0081901850692759e+03  1.0081994389694069e+03  1.0082100906724427e+03  1.0082179636987897e+03  1.0082264972794341e+03  1.0082379745613954e+03  1.0082462979659100e+03  1.0082460405467285e+03  1.0082376766432585e+03  1.0082364096369392e+03  1.0082459887251714e+03  1.0082620868725326e+03  1.0082743013048400e+03  1.0082754671646545e+03  1.0082725420657247e+03  1.0082669340363873e+03  1.0082862044139883e+03  1.0083382448081445e+03  1.0083711625778944e+03  1.0083450977252160e+03  1.0082904007215628e+03  1.0082614796926941e+03  1.0082617007411917e+03  1.0082727970967273e+03  1.0082724223889965e+03  1.0082653233331554e+03  1.0082528657277492e+03  1.0082397282578886e+03  1.0082274204049019e+03  1.0082239734075852e+03  1.0082354699991622e+03  1.0082658567300914e+03  1.0083028948525098e+03  1.0083399304135042e+03  1.0083504312455581e+03  1.0083401132463773e+03  1.0083152837063099e+03  1.0082934249260759e+03  1.0082808215896398e+03  1.0082755422200139e+03  1.0082810987360334e+03  1.0082931972318676e+03  1.0083005892065008e+03  1.0083041081861149e+03  1.0083105999750634e+03  1.0083296489993021e+03  1.0083989215177020e+03  1.0099037156825112e+03  1.0444761998529541e+03  2.3890484279977381e+03  1.0084598583026634e+03  1.0084754075989732e+03  1.0084386858745918e+03  1.0083882597627689e+03  1.0083649231710081e+03  1.0083686808346176e+03  1.0084085786824587e+03  1.0082954695002820e+03  1.0053893760743110e+03  1.8481641896934754e+04  1.0083055924242643e+03  1.0083269815615814e+03  1.0083405145437835e+03  1.0083517012067771e+03  1.0083446236006666e+03  1.0083495973599403e+03  1.0083692053662897e+03  1.0083995883643887e+03  1.0084623567662055e+03  1.0085531936497711e+03  1.0085892746899992e+03  1.0085575098032108e+03  1.0085008648708871e+03  1.0084728445925057e+03  1.0084408845818339e+03  1.0084170060296764e+03  1.0084217852466617e+03  1.0084546834189172e+03  1.0084796996559763e+03  1.0084797317945895e+03  1.0084643368897198e+03  1.0084416010928713e+03  1.0083835677847760e+03  1.0083240548687494e+03  1.0083041168054674e+03  1.0083515745672414e+03  1.0084394177543393e+03  1.0084970614364634e+03  1.0085258796371600e+03  1.0085415491152235e+03  1.0085632009935205e+03  1.0085407865049615e+03  1.0084478425929402e+03  1.0086124020888971e+03  1.0519449470681861e+03  3.8878078779691699e+04  </DataArray> 
</PointData> 
</Piece>
</UnstructuredGrid>
</VTKFile>