# vtk DataFile Version 5.1
vtk output
ASCII
DATASET POLYDATA
POINTS 793 double
41.173019409 54.901580811 99.174278259 41.613670349 55.387939453 98.363624573 42.131904602 55.569412231 97.498939514 
42.754829407 55.508789062 96.648674011 43.399353027 55.470825195 95.801445007 43.846244812 55.430725098 94.840919495 
44.314376831 55.591690063 93.888328552 44.680297852 55.900894165 92.922172546 45.141082764 56.376434326 92.070655823 
45.813163757 56.806137085 91.392372131 46.644454956 57.027404785 90.804771423 47.105613708 57.192642212 90.460411072 
47.159622192 57.431793213 89.928031921 48.120849609 57.794631958 88.838172913 48.323234558 58.063217163 88.125862122 
49.103393555 57.604446411 87.241752625 49.767127991 57.342086792 86.468544006 50.309371948 56.922134399 85.655448914 
51.054023743 56.776885986 84.957633972 51.691635132 56.661880493 84.097846985 52.238418579 56.259277344 83.326499939 
52.765678406 55.617355347 82.67502594 53.262329102 54.95274353 82.03401947 53.691574097 54.348770142 81.273887634 
54.158714294 53.706192017 80.592079163 54.62411499 52.990997314 79.992042542 55.095405579 52.384933472 79.28717804 
55.390304565 51.740142822 78.580726624 55.473396301 51.335144043 77.956840515 55.342735291 51.212631226 76.791130066 
55.008354187 51.032302856 75.815437317 54.568283081 50.854476929 74.906044006 54.092704773 50.509048462 74.052497864 
53.561752319 50.089828491 73.25919342 53.125411987 49.668228149 72.42552948 52.687385559 49.349563599 71.545524597 
52.287124634 48.954055786 70.675483704 51.970497131 48.687164307 69.728782654 51.489677429 48.258117676 68.909660339 
51.065010071 47.903884888 68.055259705 50.573654175 47.684402466 67.161781311 49.903862 47.403991699 66.425865173 
49.227668762 47.191604614 65.667762756 48.400741577 47.014877319 65.049720764 47.688430786 46.956329346 64.313591003 
47.086044312 46.711669922 63.513374329 46.632759094 46.350067139 62.647254944 46.199142456 45.999160767 61.769035339 
45.730773926 45.790634155 60.865486145 45.283882141 45.550354004 59.977455139 44.640953064 45.417297363 59.182243347 
43.948417664 45.259353638 58.448692322 43.264709473 45.110244751 57.866828918 43.009178162 45.298675537 56.573417664 
42.749229431 45.433700562 55.553436279 42.679344177 45.593261719 54.494735718 42.745132446 45.729034424 53.441673279 
42.706497192 45.865020752 52.371246338 42.813987732 45.953948975 51.344108582 42.809646606 45.995742798 50.17477417 
43.104003906 45.239212036 48.996154785 43.592247009 44.485855103 47.752212524 43.775901794 43.481628418 46.188262939 
42.809410095 43.524230957 44.41884613 42.287963867 43.298538208 43.564048767 41.431289673 43.47416687 43.062660217 
40.532264709 43.568466187 42.579078674 39.629737854 43.920654297 42.237770081 38.767448425 44.158172607 41.775054932 
38.011962891 44.098480225 41.087547302 37.137214661 43.805557251 40.564910889 36.29662323 43.893218994 40.035064697 
35.295761108 43.736618042 39.746871948 34.490524292 44.050140381 39.254760742 33.641044617 43.855255127 38.669464111 
32.844390869 43.65914917 38.051513672 32.247497559 43.713104248 37.236854553 31.41178894 43.545043945 36.640205383 
30.536323547 43.508834839 36.13420105 29.719680786 43.414428711 35.559654236 29.172607422 43.351913452 34.960075378 
29.155029297 43.251739502 33.611228943 28.906303406 43.317642212 32.620018005 28.744743347 43.387481689 31.610855103 
28.572929382 43.311569214 30.603691101 28.297355652 43.348495483 29.62147522 27.92641449 43.291687012 28.672164917 
27.518951416 43.366912842 27.734741211 27.135490417 43.300613403 26.7864151 26.754402161 43.335891724 25.837112427 
26.345878601 43.347076416 24.901786804 25.938873291 43.312301636 23.972267151 25.705734253 43.30645752 22.97794342 
25.449066162 43.384033203 21.994819641 24.974716187 43.403625488 21.087013245 24.486579895 43.480056763 20.194198608 
24.047348022 43.470046997 19.288719177 23.481460571 43.660629272 18.452682495 23.031272888 43.805877686 17.549507141 
22.588508606 43.957839966 16.641448975 22.078102112 43.966888428 15.733863831 21.894958496 43.931518555 14.737174988 
21.606811523 43.71081543 13.784301758 21.667495728 43.596359253 12.793205261 21.609733582 43.502990723 11.776992798 
21.604652405 43.407684326 10.770835876 21.434020996 43.175125122 9.7918167114 21.327041626 43.032531738 8.7974014282 
21.155441284 42.586166382 7.8887939453 20.900001526 42.177093506 6.9858322144 20.699012756 41.745788574 6.0989456177 
20.172538757 41.330993652 5.2965545654 19.53352356 40.905197144 4.6276092529 19.016578674 40.652603149 3.7883300781 
18.338043213 40.363723755 3.1338119507 17.609069824 40.112915039 2.4719619751 16.788803101 39.950927734 1.9319458008 
15.872047424 39.668701172 1.5881347656 27.891777039 43.366119385 35.731010437 26.892227173 43.557723999 36.027069092 
25.924659729 43.66293335 36.407264709 24.918235779 43.782928467 36.720504761 23.952980042 43.96572876 37.169586182 
22.948425293 43.900497437 37.468040466 21.940864563 43.936447144 37.790176392 21.433898926 43.863479614 37.755271912 
20.372924805 45.063903809 37.956733704 19.465492249 45.583343506 37.778968811 18.613250732 46.097915649 37.815673828 
17.722267151 46.599182129 37.809593201 16.863670349 47.198104858 37.881156921 15.903022766 47.57522583 37.713920593 
14.992744446 47.931381226 37.345352173 14.125572205 48.421188354 37.051399231 13.117141724 48.678100586 36.767333984 
12.145477295 48.986297607 36.831954956 11.112297058 49.198410034 36.783210754 20.98097229 42.396072388 37.439613342 
20.347068787 41.767150879 36.981124878 19.820480347 40.988922119 36.63520813 19.437522888 40.317962646 36.01990509 
18.817596436 39.858795166 35.395019531 18.192230225 39.431304932 34.741073608 17.549133301 38.966094971 34.124427795 
16.90763855 38.30947876 33.81741333 16.422599792 37.506195068 33.564086914 15.98764801 36.616775513 33.617034912 
44.843444824 42.213653564 46.089736938 45.322814941 41.382766724 45.601455688 45.763999939 40.491470337 45.188949585 
46.334342957 39.690460205 44.746925354 46.918243408 38.919616699 44.265380859 47.324455261 38.027435303 43.869148254 
47.714653015 37.147247314 43.385452271 48.201683044 36.229797363 43.063331604 48.610420227 34.739181519 42.655349731 
49.971214294 32.610351562 43.719024658 50.434455872 31.569564819 43.89201355 50.693405151 30.513549805 44.26335144 
50.897155762 29.407562256 44.523109436 50.869392395 28.269454956 44.568954468 41.888801575 44.431152344 58.366294861 
40.874969482 44.115844727 58.671775818 39.95929718 44.059692383 59.234336853 39.072265625 44.022064209 59.92565155 
38.339492798 44.027420044 60.704902649 37.470352173 44.10925293 61.397209167 36.745742798 43.924316406 62.183372498 
35.694633484 43.814712524 62.418525696 42.140678406 47.78855896 50.007461548 41.842407227 48.741409302 49.738388062 
41.410980225 49.630966187 50.081863403 40.98526001 50.479995728 50.52721405 40.536003113 51.379470825 50.794128418 
40.031593323 52.295394897 50.768859863 39.50907135 53.190917969 50.848175049 38.804580688 53.934158325 51.101486206 
38.229454041 54.762771606 51.365066528 37.892753601 55.639434814 51.803230286 37.531654358 56.507873535 52.245803833 
37.325737 57.425292969 52.721176147 38.80657196 59.084259033 52.90737915 39.468635559 59.851638794 53.003211975 
40.075508118 60.585098267 53.390785217 40.803337097 61.182312012 53.768333435 41.365722656 61.663208008 54.462982178 
41.932556152 62.050872803 55.227615356 42.65196991 62.469894409 55.823257446 43.311256409 63.001327515 56.363327026 
43.976791382 63.651077271 56.7943573 44.688850403 64.264831543 57.202072144 45.482963562 64.751037598 57.651145935 
46.087142944 65.261474609 58.294090271 46.403396606 66.02885437 58.885032654 46.866539001 66.856338501 59.236579895 
47.481987 67.646026611 59.300514221 48.215904236 68.336105347 59.454246521 48.784385681 69.031417847 59.88217926 
49.452285767 69.672439575 60.280937195 49.934593201 70.46812439 60.709266663 50.144378662 71.397476196 61.005485535 
50.004928589 72.289337158 61.425224304 50.006011963 72.653137207 61.693626404 50.626312256 73.369140625 61.877113342 
51.523574829 73.930374146 62.303916931 48.876296997 72.48449707 62.198997498 47.732917786 71.89881897 62.299797058 
36.003479004 58.11958313 53.274505615 35.192337036 58.65562439 53.617958069 34.396369934 59.167999268 54.016593933 
33.487045288 59.558731079 54.277908325 32.623123169 60.083938599 54.466056824 31.679489136 60.523132324 54.556724548 
30.747344971 60.857025146 54.818595886 29.765655518 61.02104187 55.080795288 28.822219849 61.275375366 55.436271667 
27.906944275 61.427047729 55.879508972 26.96711731 61.491317749 56.286407471 26.023162842 61.748443604 56.602462769 
25.049072266 61.997970581 56.842025757 24.087097168 62.344421387 57.073562622 23.198600769 62.67364502 57.466300964 
22.403335571 63.009979248 58.012947083 21.715354919 63.423812866 58.658027649 20.960975647 63.869400024 59.202003479 
20.022613525 64.070510864 59.616722107 19.136405945 64.239624023 60.042045593 18.272949219 64.543777466 60.468055725 
17.647117615 64.676574707 60.856361389 16.575218201 65.621780396 59.76537323 15.422142029 66.110717773 59.253089905 
14.279968262 66.620178223 59.492958069 17.029151917 64.538879395 61.897483826 16.305137634 64.724533081 62.578727722 
15.590118408 64.815734863 63.287727356 14.950691223 65.208297729 63.975364685 14.301330566 65.503601074 64.686668396 
13.550079346 65.888580322 65.25188446 12.93434906 66.198028564 65.98841095 12.412994385 66.402572632 66.837913513 
11.919593811 66.765228271 67.637535095 11.343933105 67.18309021 68.346443176 10.706443787 67.631332397 69.000831604 
10.156570435 67.812637329 69.820701599 9.5915298462 68.24810791 70.546104431 8.8465538025 68.616500854 71.104698181 
7.9859542847 68.900100708 71.448600769 7.455291748 69.084350586 71.807136536 6.2202606201 69.582138062 70.978782654 
5.1278419495 69.6512146 70.510749817 4.064250946 70.147842407 70.474723816 48.057739258 57.028182983 90.881401062 
[...]
POINT_DATA 793
FIELD FieldData 2
radius 1 793 double
1.1986190701 1.5904499389 1.4972326147 1.4972326147 1.4585610067 1.4678845037 1.4678845037 1.4533046802 1.4533046802 
1.3948280664 1.1396063223 1.0879205452 1.3089318928 1.3089318928 1.7872548642 1.8527362284 1.6914437751 1.6989852473 
1.6937665386 1.8059440737 1.8761848295 1.8362293992 1.7735672212 1.8302960543 1.947346 2.1046515189 2.0078577303 
1.9576622603 1.9576622603 2.0176634693 1.9414109673 1.8469560234 1.7191431649 1.6527211012 1.673495549 1.7112731041 
1.7533832722 1.7754023385 1.7864445802 1.8671072554 1.8826534233 1.7201205152 1.5921093628 1.4981690904 1.5562292893 
1.6945108759 1.8392881201 1.9292811967 2.0640075497 2.1468918373 2.1153420656 1.9998041928 1.9998041928 2.1700868373 
2.1905461438 2.1460796327 2.0663578211 2.0663578211 2.2932859467 2.2932859467 2.7669261158 2.704654657 2.5320784831 
2.6221557489 2.7076511709 2.4240319413 2.2767863318 2.2715264857 2.345501612 2.0625825689 1.8704653687 1.7190943503 
1.6352485868 1.5390464627 1.4057516457 1.3575169534 1.3622038074 1.5018413909 1.6782724988 1.8607835847 1.8607835847 
2.1126988325 2.1802571244 2.0736679174 2.0559536573 2.0083660368 1.9261606544 1.9202192098 1.8829878817 1.9559513771 
2.098865817 2.0349210974 1.9450256173 1.8681860477 1.8594560497 1.7677948456 1.7750362567 1.7676905926 1.8338932578 
1.8574822889 1.8864424725 1.8989957339 1.9442180454 1.9048403259 1.8474675985 1.8086993517 1.8016678486 1.7952873737 
1.8203816256 1.7348826015 1.737754234 1.5943483298 1.438393385 1.2164494927 1.1806050729 1.1904384405 1.0945491284 
1.0945491284 1.6519522003 1.2959267439 1.0393798214 1.0393798214 1.1335562215 1.5163703033 1.8060813228 1.8060813228 
1.5146289862 1.2458799736 1.1491527745 1.1230967156 1.2391607321 1.2151285479 1.0197814207 0.79296480434 0.73614767874 
0.69040189224 0.69040189224 1.4878540865 1.3027955925 1.1263026957 1.0920767059 1.0859472629 1.1393352845 1.2127903148 
1.2345623272 1.0250562803 1.0250562803 2.9335765489 3.1342968108 3.2287243267 3.3683471399 3.4537370016 3.4259986695 
3.3331227628 3.266012256 3.2006663449 2.3401855667 2.3401855667 1.9860529084 1.5722725553 1.5722725553 1.7416554047 
1.5630641287 1.4017721812 1.4424159955 1.4471300615 1.3522113258 1.2055120713 1.2055120713 2.2932859467 2.5494686343 
2.5615229992 2.278677416 2.2227826993 2.293789839 2.2678595408 2.3167124366 2.2629111057 2.3307447553 2.3597660013 
2.376487921 2.0279716403 1.2301002843 1.1563021214 1.3549275159 1.6580680107 1.7092770743 1.6591714569 1.6236227001 
1.651518336 1.6799865979 1.6718041568 1.6528712153 1.5916097198 1.34551913 1.2203826758 1.1259063026 1.2095005321 
1.2605188946 1.15987489 1.0082787573 1.2891527481 1.2891527481 1.2891527481 1.3455677452 0.9955636668 0.9955636668 
2.0336182611 1.9391161614 1.9391161614 2.1233231989 2.0922997708 2.0809187535 2.0836107731 2.0274380595 1.9924496055 
1.8949127825 1.9150590054 1.8491197699 1.829174303 1.9091270234 2.0219595291 1.9790611069 1.8078394155 1.739535679 
1.6939543119 1.6926651736 1.8005820163 1.8005820163 1.2553430427 0.77174627313 0.77174627313 1.8005820163 1.8458013414 
1.8458013414 1.685329126 1.8756491275 1.8756491275 2.0667427992 2.0220112578 2.1735306841 2.1980338735 2.0354543255 
1.8763148967 1.736461108 1.698744556 1.698744556 1.621980204 1.238654108 0.81389685376 0.81389685376 1.0879205452 
1.2128697509 1.3891291508 1.3212788617 1.2291233214 1.621980204 1.7810453539 1.7348871026 1.7434251722 1.7698945393 
1.8318242351 1.7322855148 1.3479493262 1.1516969012 1.0985233696 1.0504437877 0.9885346561 0.99049786371 1.6749348011 
1.6749348011 1.7052547223 1.7104190304 1.3819869273 1.3819869273 2.660099562 2.4511311849 2.3913534973 2.3496884674 
2.3992727099 2.447233558 2.4816298856 2.4816298856 2.5940153647 2.6093541189 2.5679795674 2.5247278119 2.652643286 
2.6781978207 2.6061525382 2.4720781016 2.5285780679 2.5815195578 2.5282233376 2.4601679571 2.1376394364 1.9521898818 
1.8959496375 1.9635529379 1.9629961571 1.8828739279 1.8765394279 1.8481547498 1.8221185286 1.7724207768 1.7472460713 
1.7723130127 1.856775139 1.7863786907 1.7715404234 1.6773282413 1.6717914884 1.6889683436 1.6805200184 1.7779874076 
1.6013943958 1.3546525458 1.3561667234 1.4946507725 1.7478279042 1.7756749432 1.7052126066 1.6543498027 1.7067683645 
1.7080343921 1.778317829 1.8083721364 1.8614470858 1.8565747998 1.7824365058 1.6584542055 1.4917920633 1.4419990833 
1.4363882194 1.4962542824 1.6026491669 1.6568159503 1.682786367 1.7019873278 1.6273735754 1.6201911009 1.5761886683 
1.6132974738 1.5456520809 1.5000469326 1.4279033861 1.2725807056 1.0349246846 1.0349246846 1.223862841 1.0064153804 
1.1157929345 1.2761972753 1.4109809748 1.4109809748 1.467031594 1.3638227141 1.0673502556 0.83123530991 0.83123530991 
1.7872548642 1.6516413845 1.5206344298 1.5446906943 1.4272238834 1.4653185952 1.5392683992 1.3887129439 1.45859394 
1.2227699637 0.76383989004 0.76383989004 0.71485076657 0.97167261082 1.1297157372 1.2733808201 1.2733808201 1.2351498915 
1.0736285435 1.0624681605 1.0624681605 1.1721352562 1.1834881264 1.4561449119 1.7237471491 1.6588344413 1.3170757501 
1.0581149117 0.94449471387 0.90987536896 0.84655354344 0.76948767838 0.94024099798 0.94024099798 1.2631393188 1.2045832047 
0.92765150278 1.1986190701 1.5904499389 1.4972326147 1.409661071 1.4585610067 1.4678845037 1.4535417157 1.4533046802 
1.3948280664 1.1396063223 1.0879205452 1.0879205452 1.0879205452 1.3089318928 1.7872548642 1.7872548642 1.7872548642 
1.8527362284 1.6914437751 1.6989852473 1.6937665386 1.8059440737 1.8761848295 1.8362293992 1.7735672212 1.8302960543 
1.947346 2.1046515189 2.0078577303 1.9576622603 1.9576622603 1.9576622603 2.0176634693 1.9414109673 1.8469560234 
1.7191431649 1.6527211012 1.673495549 1.7112731041 1.7533832722 1.7754023385 1.7864445802 1.8671072554 1.8826534233 
1.7201205152 1.5921093628 1.4981690904 1.5562292893 1.6945108759 1.8392881201 1.9292811967 2.0640075497 2.1468918373 
2.1153420656 1.9998041928 1.9998041928 1.9998041928 2.1700868373 2.1905461438 2.1460796327 2.0663578211 2.1531075177 
2.2932859467 2.2932859467 2.2932859467 2.7669261158 2.704654657 2.5320784831 2.5320784831 2.6221557489 2.7076511709 
2.4240319413 2.2767863318 2.2715264857 2.345501612 2.0625825689 1.8704653687 1.7190943503 1.6352485868 1.5390464627 
1.4057516457 1.3575169534 1.3622038074 1.5018413909 1.6782724988 1.8607835847 1.8607835847 1.8607835847 2.1126988325 
2.1802571244 2.0736679174 2.0559536573 2.0083660368 1.9261606544 1.9202192098 1.8829878817 1.9559513771 2.098865817 
2.0349210974 1.9450256173 1.8681860477 1.8594560497 1.7677948456 1.7750362567 1.7676905926 1.8338932578 1.8574822889 
1.8864424725 1.8989957339 1.9442180454 1.9048403259 1.8474675985 1.8086993517 1.8016678486 1.7952873737 1.8203816256 
1.7348826015 1.737754234 1.5943483298 1.438393385 1.2164494927 1.1806050729 1.1904384405 1.0945491284 1.6519522003 
1.2959267439 1.0393798214 0.96723161368 1.1335562215 1.5163703033 1.8060813228 1.8060813228 1.8060813228 1.5146289862 
1.2458799736 1.1491527745 1.1230967156 1.2391607321 1.2151285479 1.0197814207 0.79296480434 0.73614767874 0.69040189224 
1.4878540865 1.3027955925 1.1263026957 1.0920767059 1.0859472629 1.1393352845 1.2127903148 1.2345623272 1.0250562803 
2.9335765489 3.1342968108 3.2287243267 3.3683471399 3.4537370016 3.4259986695 3.3331227628 3.266012256 3.2006663449 
3.2006663449 2.3401855667 1.9860529084 1.6792259357 1.5722725553 1.7416554047 1.5630641287 1.4017721812 1.4424159955 
1.4471300615 1.3522113258 1.2055120713 2.5494686343 2.5615229992 2.278677416 2.2227826993 2.293789839 2.2678595408 
2.3167124366 2.2629111057 2.3307447553 2.3597660013 2.376487921 2.0279716403 2.0279716403 1.2301002843 1.1563021214 
1.3549275159 1.6580680107 1.7092770743 1.6591714569 1.6236227001 1.651518336 1.6799865979 1.6718041568 1.6528712153 
1.5916097198 1.34551913 1.2203826758 1.1259063026 1.2095005321 1.2605188946 1.15987489 1.0082787573 0.99410585285 
1.2891527481 1.2891527481 1.2891527481 1.3455677452 0.9955636668 2.0336182611 1.9391161614 1.997757416 2.1233231989 
2.0922997708 2.0809187535 2.0836107731 2.0274380595 1.9924496055 1.8949127825 1.9150590054 1.8491197699 1.829174303 
1.9091270234 2.0219595291 1.9790611069 1.8078394155 1.739535679 1.6939543119 1.6926651736 1.8005820163 1.8005820163 
1.8005820163 1.2553430427 0.77174627313 2.0512784753 1.8458013414 1.685329126 1.7063529714 1.8756491275 2.0667427992 
2.0220112578 2.1735306841 2.1980338735 2.0354543255 1.8763148967 1.7081735754 1.736461108 1.698744556 1.621980204 
1.621980204 1.621980204 1.238654108 0.81389685376 1.2128697509 1.3891291508 1.3212788617 1.2291233214 1.7810453539 
1.7348871026 1.7434251722 1.7698945393 1.8318242351 1.7322855148 1.7322855148 1.3479493262 1.1516969012 1.0985233696 
1.0504437877 0.9885346561 0.99049786371 1.6749348011 1.6711913197 1.7052547223 1.7104190304 1.3819869273 2.660099562 
2.4511311849 2.3913534973 2.3496884674 2.3992727099 2.447233558 2.4816298856 2.4861558962 2.5940153647 2.6093541189 
2.5679795674 2.5247278119 2.652643286 2.6781978207 2.6061525382 2.4720781016 2.5285780679 2.5815195578 2.5282233376 
2.4601679571 2.1376394364 1.9521898818 1.8959496375 1.9635529379 1.9629961571 1.8828739279 1.8765394279 1.8481547498 
1.8221185286 1.7724207768 1.7472460713 1.7723130127 1.856775139 1.7863786907 1.7715404234 1.6773282413 1.6717914884 
1.6889683436 1.6805200184 1.7779874076 1.6013943958 1.3546525458 1.3561667234 1.4946507725 1.7478279042 1.7756749432 
1.7052126066 1.6543498027 1.7067683645 1.7080343921 1.778317829 1.8083721364 1.8614470858 1.8565747998 1.7824365058 
1.6584542055 1.4917920633 1.4419990833 1.4363882194 1.4962542824 1.6026491669 1.6568159503 1.682786367 1.7019873278 
1.6273735754 1.6201911009 1.5761886683 1.6132974738 1.5456520809 1.5000469326 1.4279033861 1.2725807056 1.0349246846 
1.223862841 1.0064153804 1.1157929345 1.2761972753 1.4109809748 1.467031594 1.3638227141 1.2474814967 1.0673502556 
0.83123530991 1.6516413845 1.5206344298 1.5446906943 1.4272238834 1.4653185952 1.5392683992 1.3887129439 1.45859394 
1.2227699637 0.92999914541 0.76383989004 0.71485076657 0.97167261082 1.0617141688 1.1297157372 1.2733808201 1.2806038623 
1.2351498915 1.0736285435 1.0624681605 1.0801785678 1.1721352562 1.1834881264 1.4561449119 1.7237471491 1.6588344413 
1.3170757501 1.0581149117 0.94449471387 0.90987536896 0.84655354344 0.76948767838 0.94024099798 1.2631393188 1.2045832047 
0.92765150278 
uh1d 1 793 double
-0.86124679598 -0.8612243841 -0.86121130617 -0.86119657912 -0.86118045488 -0.86116557524 -0.86115103134 -0.86113651326 -0.86112231881 
-0.86110782694 -0.86108735754 -0.86107425107 -0.86104761241 -0.86099943127 -0.86098543746 -0.86096002696 -0.86094024766 -0.86091692411 
-0.86089478156 -0.8608720848 -0.86085320796 -0.86083533005 -0.86081703941 -0.8607977035 -0.86078016942 -0.86076503228 -0.86075204613 
-0.86073863756 -0.86072829374 -0.8607047718 -0.86068515944 -0.86066463247 -0.86064192058 -0.86061598176 -0.86058876064 -0.8605624854 
-0.86053758013 -0.86051414942 -0.86049135241 -0.86046977445 -0.86044966319 -0.86043001144 -0.86040671923 -0.86037966356 -0.86035052582 
-0.86032389976 -0.86030144004 -0.86028252949 -0.86026565141 -0.86025126167 -0.86023792421 -0.86022443064 -0.86021127034 -0.86019447635 
-0.86018318139 -0.86017211509 -0.86016085109 -0.86014880277 -0.86013837201 -0.86012814748 -0.86010440907 -0.86008651283 -0.86006399057 
-0.86005521029 -0.86005125135 -0.86004766113 -0.8600433044 -0.86003857927 -0.86003412001 -0.86002993215 -0.86002456514 -0.8600186615 
-0.8600115759 -0.86000442279 -0.8599961454 -0.85998683401 -0.85997736772 -0.85996815904 -0.85996106826 -0.85995565533 -0.859952167 
-0.85995335429 -0.85995428313 -0.85995536306 -0.85995676127 -0.85995839371 -0.8599603293 -0.85996266098 -0.85996524627 -0.85996814194 
-0.85997102527 -0.85997376914 -0.85997693962 -0.85998063969 -0.85998489913 -0.85998946464 -0.85999466423 -0.86000019866 -0.86000596086 
-0.86001159879 -0.86001745655 -0.86002324388 -0.86002921715 -0.86003508059 -0.86004158942 -0.86004868009 -0.86005639472 -0.86006435221 
-0.86007274096 -0.86008122515 -0.86009061247 -0.8601007572 -0.86011284706 -0.86012818025 -0.86014894561 -0.86017192597 -0.86019479648 
-0.86022259035 -0.85994487271 -0.85993856498 -0.85992888104 -0.85991455247 -0.85989888767 -0.85988833343 -0.85988249969 -0.85988052534 
-0.85987759293 -0.85987529716 -0.85987255223 -0.8598696817 -0.85986709508 -0.85986533238 -0.85986390092 -0.85986243332 -0.85986076527 
-0.8598596962 -0.85985928077 -0.85987788361 -0.85987582695 -0.85987350329 -0.85987088936 -0.85986850455 -0.8598665008 -0.85986506617 
-0.85986419199 -0.85986368939 -0.85986345645 -0.86004971522 -0.86004288668 -0.86003700093 -0.86003159564 -0.86002673717 -0.8600223181 
-0.86001786308 -0.86001326185 -0.8600064855 -0.86000497694 -0.86000431179 -0.86000371957 -0.86000324297 -0.86000306096 -0.86020913222 
-0.86020757377 -0.8602060057 -0.86020438027 -0.86020324553 -0.86020241519 -0.86020187886 -0.86020166271 -0.86014503913 -0.86015272279 
-0.86016046384 -0.86017024631 -0.86018079849 -0.86019103283 -0.86020155355 -0.86021201953 -0.86022296917 -0.86023349792 -0.8602439511 
-0.86025457219 -0.86026292507 -0.86027316329 -0.86028649365 -0.86029670536 -0.86030380615 -0.8603106662 -0.86031811907 -0.86032603811 
-0.86033417383 -0.86034230845 -0.86035085377 -0.86035975572 -0.86036961739 -0.86038336722 -0.86040058708 -0.86042165648 -0.86044032959 
-0.86045805435 -0.8604793436 -0.86050702241 -0.86053512357 -0.86054324558 -0.86056171448 -0.86058236501 -0.86054242481 -0.86054199618 
-0.86027078653 -0.86028189236 -0.8602941931 -0.86030588919 -0.86031657955 -0.86032796752 -0.86033945806 -0.86035124885 -0.86036404223 
-0.86037744681 -0.86039233985 -0.86040730313 -0.86042363678 -0.86044067853 -0.86045619055 -0.8604703884 -0.86048573693 -0.86050429426 
-0.8605248705 -0.86054576628 -0.86056699629 -0.86058121673 -0.86058008068 -0.86057931387 -0.86057880302 -0.86060570023 -0.86062217471 
-0.86064206514 -0.86066599643 -0.86068940906 -0.86070949198 -0.86072639481 -0.86074412775 -0.86075977244 -0.86077510506 -0.86079320539 
-0.86081447423 -0.86084066381 -0.86086647967 -0.86089277876 -0.86091262926 -0.8609318772 -0.86095814094 -0.86101610351 -0.86110106514 
-0.86112412575 -0.86114255657 -0.86116275619 -0.86118577805 -0.86093336384 -0.86095124616 -0.86097028416 -0.86098958646 -0.8610083026 
-0.86102649228 -0.86104177191 -0.8610578091 -0.8610805991 -0.86110712067 -0.86113605168 -0.86116936994 -0.86120385373 -0.86103818657 
-0.86104900987 -0.86106014405 -0.86107142068 -0.86108320221 -0.86110074727 -0.85999818304 -0.85999345079 -0.85998798949 -0.85998250679 
-0.85997716425 -0.85997203738 -0.85996740131 -0.85996299598 -0.85995877856 -0.85995501155 -0.85995161523 -0.85994819308 -0.85994483028 
-0.85994199611 -0.85993938239 -0.85993674683 -0.85993403075 -0.85993164618 -0.85992951995 -0.85992751388 -0.85992553393 -0.85992315286 
-0.85992063606 -0.85991814895 -0.85991619676 -0.85991442134 -0.859912792 -0.85991140799 -0.85991024109 -0.85990933376 -0.85990865291 
-0.85990823502 -0.85990810518 -0.85990824433 -0.85990867117 -0.85990938812 -0.85991047649 -0.85991189641 -0.85991350554 -0.85991543809 
-0.85991745044 -0.85992030358 -0.85992457509 -0.85992919737 -0.85993317903 -0.85993643937 -0.85993991529 -0.85994399318 -0.85994852686 
-0.85995315932 -0.85995801479 -0.85996269052 -0.85996757967 -0.85997236434 -0.85997759311 -0.85998358898 -0.85999081875 -0.86000003844 
-0.86001020689 -0.86002068403 -0.86003070437 -0.86003968241 -0.86004826463 -0.86005698753 -0.86006596809 -0.86007599871 -0.86008642405 
-0.86009771567 -0.86010885722 -0.8601213872 -0.86013496522 -0.86015021317 -0.86016998087 -0.86019987813 -0.86074060012 -0.86075996302 
-0.86078798578 -0.86081080115 -0.86082902397 -0.86084465283 -0.86085957175 -0.86087700878 -0.86089890718 -0.86092998247 -0.86097898105 
-0.86099040634 -0.86099498936 -0.86100046639 -0.86100622169 -0.86101325335 -0.86102034914 -0.86102704945 -0.86103533094 -0.86104336048 
-0.86105456348 -0.86107506529 -0.86110716541 -0.86114421377 -0.86116548845 -0.86118280514 -0.86119863882 -0.86121141752 -0.86122459356 
-0.86123918519 -0.86125891446 -0.86127961256 -0.86129971844 -0.86131747715 -0.86133479215 -0.86134630443 -0.8613552411 -0.86136555893 
-0.86138229893 -0.86140827251 -0.8614409121 -0.86147660885 -0.86151831392 -0.86156774282 -0.86160238666 -0.86162263824 -0.86164447324 
-0.86167824552 -0.86123489074 -0.8612178706 -0.86120390093 -0.86118851035 -0.86117296396 -0.86115825942 -0.86114374008 -0.86112937156 
-0.86111508058 -0.86109794169 -0.8610808388 -0.86106044457 -0.86108760178 -0.86102342768 -0.86099212424 -0.86097260484 -0.86098786324 
-0.86095024401 -0.86092853959 -0.86090582299 -0.86088326711 -0.86086255081 -0.86084426574 -0.86082620115 -0.86080728262 -0.86078880696 
-0.86077246464 -0.86075855768 -0.86074534001 -0.86073344874 -0.8607164305 -0.86073400455 -0.86069499461 -0.86067494627 -0.86065337119 
-0.86062899736 -0.86060230595 -0.86057553709 -0.86054994576 -0.86052580542 -0.860502704 -0.86048044841 -0.86045967168 -0.86043994332 
-0.86041847205 -0.86039328465 -0.86036496232 -0.86033697604 -0.8603124738 -0.86029187653 -0.86027396236 -0.86025838245 -0.86024458441 
-0.86023121361 -0.86021783048 -0.86020271004 -0.86021015975 -0.86018879545 -0.86017764224 -0.86016649323 -0.86015480134 -0.86014347294 
-0.86013323305 -0.86011581347 -0.8601365215 -0.86009545564 -0.86007531034 -0.86005950223 -0.86005660911 -0.86005320181 -0.86004946933 
-0.86004548434 -0.86004092121 -0.86003631657 -0.86003204519 -0.86002726274 -0.86002162618 -0.86001511533 -0.86000800382 -0.86000030672 
-0.85999147882 -0.85998206092 -0.85997264432 -0.85996450938 -0.85995828235 -0.85995389339 -0.85995272625 -0.85994852519 -0.85995379617 
-0.85995479395 -0.85995603505 -0.85995754796 -0.85995932768 -0.85996146583 -0.85996392035 -0.85996667398 -0.85996957306 -0.85997236344 
-0.85997531462 -0.8599787481 -0.85998273674 -0.85998713204 -0.85999203431 -0.85999739628 -0.86000306515 -0.86000875395 -0.86001450239 
-0.8600203225 -0.86002621134 -0.86003210952 -0.86003828715 -0.86004509063 -0.86005250186 -0.86006033859 -0.86006852266 -0.86007691676 
-0.86008588639 -0.86009557961 -0.86010666774 -0.86012028137 -0.86013846565 -0.86016040055 -0.86018316062 -0.86020863632 -0.85994179056 
-0.85993383069 -0.85992166165 -0.85990652708 -0.85989324638 -0.85988528252 -0.8598815048 -0.85987901837 -0.85987916718 -0.8598764364 
-0.85987389809 -0.85987107132 -0.85986831021 -0.85986616461 -0.85986458012 -0.85986312619 -0.85986151692 -0.85986014583 -0.85985938492 
-0.85987683911 -0.85987464825 -0.8598721557 -0.85986964831 -0.85986744306 -0.85986572544 -0.85986458275 -0.85986390069 -0.85986351487 
-0.86004624299 -0.86003991127 -0.86003426121 -0.86002913903 -0.86002451435 -0.86002008352 -0.86001555225 -0.86000984523 -0.86000563778 
-0.86000235669 -0.86000461478 -0.86000399093 -0.86000344992 -0.86000310667 -0.86020833103 -0.86020676521 -0.86020514329 -0.86020377141 
-0.86020278889 -0.86020210384 -0.86020171696 -0.86014892421 -0.86015657649 -0.86016522906 -0.86017547732 -0.86018591897 -0.86019626016 
-0.86020678152 -0.86021744922 -0.8602282362 -0.86023871255 -0.86024924458 -0.86025850546 -0.86026238141 -0.86026739322 -0.86027971013 
-0.86029167919 -0.86030032525 -0.86030722029 -0.86031434015 -0.86032203052 -0.86033008222 -0.8603382175 -0.86034654132 -0.86035525998 
-0.86036461671 -0.86037623098 -0.86039177827 -0.86041091683 -0.86043104822 -0.86044920098 -0.86046848624 -0.86049276398 -0.86052171594 
-0.86053917431 -0.8605524328 -0.86054276886 -0.86057204652 -0.8605421032 -0.86027627017 -0.86028801478 -0.86030010458 -0.86031119517 
-0.86032224071 -0.86033368708 -0.86034529958 -0.86035759814 -0.86037066124 -0.8603848761 -0.86039974818 -0.86041542293 -0.86043218666 
-0.86044848094 -0.86046323475 -0.86047792286 -0.8604949232 -0.8605145011 -0.86053528319 -0.86055646125 -0.86057408847 -0.860580566 