# vtk DataFile Version 5.1
vtk output
ASCII
DATASET POLYDATA
POINTS 29278 double
0 76.464401245 92 0 77.314002991 92 1.6991958618 96.005401611 70 
1.6991958618 96.005401611 70.5 4.2481002808 53.525001526 48.5 5.097694397 52.675003052 46.5 
5.097694397 52.675003052 47 5.097694397 52.675003052 47.5 5.097694397 52.675003052 48 
5.097694397 54.375 49 5.097694397 55.223999023 49.5 5.097694397 56.92300415 48.5 
5.097694397 57.773002625 47 5.097694397 57.773002625 47.5 5.097694397 58.623001099 46.5 
5.9472961426 50.976005554 52.5 5.9472961426 51.826004028 52 5.9472961426 52.675003052 51.5 
5.9472961426 53.525001526 51 5.9472961426 54.375 50.5 5.9472961426 55.223999023 50 
5.9472961426 56.074005127 49 5.9472961426 56.92300415 48 5.9472961426 58.623001099 46 
5.9472961426 59.472000122 45.5 5.9472961426 60.322006226 45 5.9472961426 66.269004822 108.5 
5.9472961426 67.119003296 108.5 5.9472961426 106.20070267 37 6.7968978882 44.179000854 53 
6.7968978882 45.028999329 53 6.7968978882 45.878005981 52.5 6.7968978882 46.728004456 52.5 
6.7968978882 47.57800293 52.5 6.7968978882 48.427001953 52.5 6.7968978882 49.277000427 52.5 
6.7968978882 50.126998901 53 6.7968978882 61.171005249 44.5 6.7968978882 62.021003723 43.5 
6.7968978882 62.021003723 44 6.7968978882 62.871002197 43 6.7968978882 84.110900879 82.5 
6.7968978882 84.960502625 81 6.7968978882 84.960502625 81.5 6.7968978882 106.20070267 37.5 
6.7968978882 106.20070267 38 7.6464958191 42.480003357 54.5 7.6464958191 42.480003357 55 
7.6464958191 42.480003357 55.5 7.6464958191 43.330001831 53.5 7.6464958191 43.330001831 54 
7.6464958191 50.976005554 53.5 7.6464958191 50.976005554 54 7.6464958191 50.976005554 54.5 
7.6464958191 51.826004028 89 7.6464958191 63.720001221 42.5 7.6464958191 64.569999695 42.5 
7.6464958191 83.261299133 80.5 7.6464958191 84.110900879 80.5 7.6464958191 84.110900879 82 
7.6464958191 84.110900879 83 8.4960975647 28.886001587 89 8.4960975647 42.480003357 56 
8.4960975647 42.480003357 56.5 8.4960975647 49.277000427 56.5 8.4960975647 50.126998901 56 
8.4960975647 50.126998901 57 8.4960975647 50.976005554 55 8.4960975647 50.976005554 55.5 
8.4960975647 51.826004028 89.5 8.4960975647 64.569999695 112.5 8.4960975647 65.418998718 41.5 
8.4960975647 65.418998718 42 8.4960975647 65.418998718 112.5 8.4960975647 66.269004822 41 
8.4960975647 66.269004822 112.5 8.4960975647 67.119003296 112.5 8.4960975647 82.411705017 84 
8.4960975647 83.261299133 83.5 9.3456954956 28.886001587 89 9.3456954956 42.480003357 57.5 
9.3456954956 42.480003357 58 9.3456954956 43.330001831 57 9.3456954956 43.330001831 58.5 
9.3456954956 43.330001831 59 9.3456954956 43.330001831 59.5 9.3456954956 43.330001831 60 
9.3456954956 44.179000854 56.5 9.3456954956 45.028999329 56.5 9.3456954956 45.878005981 56.5 
9.3456954956 46.728004456 56 9.3456954956 47.57800293 56 9.3456954956 48.427001953 56 
9.3456954956 50.126998901 57.5 9.3456954956 50.126998901 58 9.3456954956 50.976005554 58.5 
9.3456954956 50.976005554 59 9.3456954956 50.976005554 59.5 9.3456954956 67.119003296 41 
9.3456954956 78.163604736 81 9.3456954956 78.163604736 81.5 9.3456954956 78.163604736 82 
9.3456954956 78.163604736 82.5 9.3456954956 81.562103271 84.5 10.195297241 35.682998657 68 
10.195297241 36.533004761 67.5 10.195297241 37.382003784 67.5 10.195297241 38.232009888 67 
10.195297241 39.082000732 66.5 10.195297241 39.930999756 66 10.195297241 40.781005859 65.5 
10.195297241 41.630004883 65 10.195297241 42.480003357 64.5 10.195297241 43.330001831 60.5 
10.195297241 43.330001831 61 10.195297241 43.330001831 61.5 10.195297241 43.330001831 62 
10.195297241 43.330001831 62.5 10.195297241 43.330001831 63 10.195297241 43.330001831 63.5 
10.195297241 43.330001831 64 10.195297241 50.976005554 60 10.195297241 50.976005554 60.5 
10.195297241 50.976005554 61 10.195297241 50.976005554 61.5 10.195297241 50.976005554 62 
10.195297241 50.976005554 62.5 10.195297241 51.826004028 91 10.195297241 61.171005249 108.5 
10.195297241 67.968002319 41 10.195297241 68.818000793 41.5 10.195297241 80.712501526 85 
11.044895172 34.833999634 68.5 11.044895172 40.781005859 65 11.044895172 50.976005554 63 
11.044895172 50.976005554 63.5 11.044895172 50.976005554 64 11.044895172 51.826004028 64.5 
11.044895172 51.826004028 65 11.044895172 52.675003052 65.5 11.044895172 52.675003052 91.5 
11.044895172 60.322006226 108.5 11.044895172 61.171005249 110 11.044895172 69.667999268 41.5 
11.044895172 75.6147995 87.5 11.044895172 79.013198853 47.5 11.044895172 80.712501526 85.5 
11.044895172 80.712501526 86 11.894496918 33.984008789 69 11.894496918 33.984008789 69.5 
11.894496918 34.833999634 85 11.894496918 39.930999756 64.5 11.894496918 52.675003052 66 
11.894496918 53.525001526 66.5 11.894496918 53.525001526 92 11.894496918 56.92300415 104 
11.894496918 57.773002625 104.5 11.894496918 57.773002625 105 11.894496918 58.623001099 105.5 
11.894496918 59.472000122 107 11.894496918 60.322006226 108.5 11.894496918 61.171005249 110 
11.894496918 70.517105103 42 11.894496918 71.36680603 42.5 11.894496918 71.36680603 43 
11.894496918 72.216400146 43.5 11.894496918 72.216400146 44 11.894496918 73.066001892 44.5 
11.894496918 75.6147995 88.5 11.894496918 76.464401245 87.5 11.894496918 79.013198853 47.5 
11.894496918 79.86289978 86.5 12.744197845 33.134002686 70 12.744197845 35.682998657 85.5 
12.744197845 35.682998657 86 12.744197845 39.930999756 64 12.744197845 54.375 67 
12.744197845 55.223999023 101.5 12.744197845 59.472000122 107 12.744197845 60.322006226 108.5 
12.744197845 61.171005249 110 12.744197845 61.171005249 111 12.744197845 72.216400146 45 
12.744197845 73.066001892 45.5 12.744197845 73.915603638 46 12.744197845 73.915603638 46.5 
12.744197845 75.6147995 88.5 12.744197845 77.314002991 47.5 12.744197845 77.314002991 87.5 
12.744197845 78.163604736 47.5 12.744197845 79.013198853 87.5 12.744197845 79.86289978 87 
13.593795776 33.134002686 70.5 13.593795776 36.533004761 86.5 13.593795776 36.533004761 87 
13.593795776 38.232009888 89 13.593795776 39.082000732 64.5 13.593795776 39.082000732 90.5 
13.593795776 54.375 101 13.593795776 55.223999023 67.5 13.593795776 58.623001099 119 
13.593795776 59.472000122 119 13.593795776 60.322006226 108.5 13.593795776 61.171005249 110 
13.593795776 62.021003723 111 13.593795776 74.765205383 47 13.593795776 75.6147995 47.5 
13.593795776 75.6147995 89 13.593795776 76.464401245 48 13.593795776 78.163604736 88 
14.443397522 30.585998535 93 14.443397522 30.585998535 93.5 14.443397522 33.134002686 71 
14.443397522 36.533004761 87.5 14.443397522 37.382003784 88 14.443397522 37.382003784 88.5 
14.443397522 38.232009888 89.5 14.443397522 39.082000732 64.5 14.443397522 39.082000732 90 
14.443397522 39.930999756 91 14.443397522 40.781005859 91.5 14.443397522 41.630004883 91.5 
14.443397522 54.375 67 14.443397522 54.375 101 14.443397522 54.375 106.5 
14.443397522 61.171005249 108.5 14.443397522 61.171005249 109.5 14.443397522 62.021003723 66 
14.443397522 62.021003723 111 14.443397522 74.765205383 48 14.443397522 76.464401245 47 
14.443397522 76.464401245 89 14.443397522 78.163604736 88.5 15.292995453 27.18699646 91 
15.292995453 28.037002563 91.5 15.292995453 28.886001587 91.5 15.292995453 29.73600769 92 
15.292995453 30.585998535 92.5 15.292995453 31.434997559 94 15.292995453 32.285003662 94 
15.292995453 33.134002686 71.5 15.292995453 33.984008789 94.5 15.292995453 33.984008789 95 
15.292995453 33.984008789 95.5 15.292995453 38.232009888 64.5 15.292995453 42.480003357 92 
15.292995453 43.330001831 92.5 15.292995453 54.375 66.5 15.292995453 54.375 94 
15.292995453 54.375 100.5 15.292995453 54.375 106.5 15.292995453 61.171005249 109 
15.292995453 62.021003723 66 15.292995453 62.021003723 111 15.292995453 75.6147995 48 
15.292995453 76.464401245 46.5 15.292995453 77.314002991 88.5 15.292995453 84.960502625 47.5 
15.292995453 85.81010437 47.5 16.142597198 26.337005615 91 16.142597198 33.134002686 72 
16.142597198 33.134002686 94 16.142597198 34.833999634 96 16.142597198 34.833999634 96.5 
16.142597198 35.682998657 98.5 16.142597198 36.533004761 98 16.142597198 37.382003784 65 
16.142597198 37.382003784 97.5 16.142597198 38.232009888 98 16.142597198 41.630004883 98 
16.142597198 42.480003357 98 16.142597198 43.330001831 98 16.142597198 44.179000854 92 
16.142597198 45.878005981 93 16.142597198 45.878005981 93.5 16.142597198 46.728004456 94 
16.142597198 47.57800293 94.5 16.142597198 47.57800293 97 16.142597198 48.427001953 95 
16.142597198 48.427001953 95.5 16.142597198 48.427001953 96 16.142597198 48.427001953 96.5 
16.142597198 48.427001953 97 16.142597198 53.525001526 67 16.142597198 53.525001526 67.5 
16.142597198 53.525001526 100 16.142597198 53.525001526 101 16.142597198 54.375 93.5 
16.142597198 54.375 96.5 16.142597198 55.223999023 94.5 16.142597198 55.223999023 96 
16.142597198 62.021003723 68 16.142597198 63.720001221 67 16.142597198 75.6147995 48.5 
16.142597198 76.464401245 46.5 16.142597198 77.314002991 46 16.142597198 77.314002991 89 
16.142597198 77.314002991 89.5 16.992195129 24.638000488 79.5 16.992195129 25.488006592 80 
16.992195129 26.337005615 79.5 16.992195129 26.337005615 80.5 16.992195129 26.337005615 81 
16.992195129 27.18699646 76 16.992195129 27.18699646 76.5 16.992195129 27.18699646 77 
16.992195129 27.18699646 77.5 16.992195129 27.18699646 78 16.992195129 27.18699646 78.5 
16.992195129 27.18699646 79 16.992195129 27.18699646 81 16.992195129 28.037002563 81.5 
16.992195129 28.886001587 81.5 16.992195129 33.134002686 72.5 16.992195129 35.682998657 97 
16.992195129 36.533004761 97 16.992195129 37.382003784 65 16.992195129 39.082000732 98 
16.992195129 39.930999756 98 16.992195129 40.781005859 98 16.992195129 41.630004883 97.5 
16.992195129 41.630004883 98.5 16.992195129 42.480003357 97.5 16.992195129 42.480003357 98.5 
16.992195129 43.330001831 97.5 16.992195129 43.330001831 98.5 16.992195129 44.179000854 91.5 
16.992195129 44.179000854 98 16.992195129 45.028999329 92.5 16.992195129 45.028999329 97.5 
[...]
POINT_DATA 29278
FIELD FieldData 2
radius 1 29278 double
0.01 0.01 0.01 0.01 0.01 0.01 0.01 0.01 0.01 
0.01 0.01 0.5 0.849609 0.849609 0.5 0.5 0.5 0.849609 
0.849609 0.849609 0.985817 0.849609 0.5 0.5 0.5 0.5 0.01 
0.01 0.01 0.849609 0.849609 0.5 0.985817 0.985817 0.985817 0.985817 
0.985817 0.5 0.985817 0.985817 0.985817 0.01 0.01 0.01 0.01 
0.01 0.985817 0.985817 0.985817 0.849609 0.849609 0.5 0.01 0.01 
0.01 0.849609 0.5 0.01 0.01 0.01 0.01 0.01 0.849609 
0.849609 0.01 0.01 0.01 0.01 0.01 0.01 0.01 0.849609 
0.849609 0.01 0.849609 0.01 0.01 0.01 0.01 0.01 0.849609 
0.849609 0.849609 0.849609 0.849609 0.849609 0.849609 0.5 0.01 0.01 
0.01 0.01 0.01 0.01 0.01 0.01 0.01 0.01 0.849609 
0.01 0.01 0.01 0.01 0.01 0.849609 0.849609 0.849609 0.5 
0.849609 0.849609 0.849609 0.849609 0.849609 0.849609 0.5 0.849609 0.849609 
0.849609 0.849609 0.849609 0.849609 0.01 0.01 0.01 0.01 0.01 
0.01 0.01 0.01 0.985817 0.985817 0.01 0.849609 0.849609 0.01 
0.01 0.01 0.01 0.01 0.01 0.01 0.01 0.01 0.5 
0.01 0.01 0.5 0.5 0.849609 0.5 0.985817 0.849609 0.01 
0.01 0.01 0.01 0.01 0.01 0.01 0.01 0.01 0.01 
0.985817 0.5 0.5 0.849609 0.5 0.849609 0.01 0.01 0.01 
0.849609 0.5 0.985817 0.985817 0.01 0.01 0.01 0.01 0.01 
0.01 0.01 0.5 0.849609 0.849609 0.985817 0.01 0.01 0.01 
0.01 0.5 0.5 0.5 0.985817 0.849609 0.01 0.01 0.01 
0.01 0.01 0.01 0.01 0.01 0.01 0.01 0.849609 0.849609 
0.01 0.849609 0.01 0.5 0.5 0.5 0.985817 0.5 0.01 
0.01 0.01 0.01 0.01 0.01 0.5 0.01 0.01 0.01 
0.01 0.01 0.01 0.01 0.849609 0.849609 0.01 0.5 0.01 
0.01 0.5 0.5 0.5 0.01 0.01 0.5 0.01 0.01 
0.01 0.01 0.5 0.849609 0.01 0.01 0.01 0.01 0.01 
0.01 0.01 0.5 0.849609 0.01 0.01 0.01 0.01 0.5 
0.01 0.01 0.5 0.01 0.01 0.01 0.01 0.01 0.01 
0.01 0.01 0.849609 0.5 0.5 0.849609 0.985817 0.5 0.849609 
0.849609 0.849609 0.849609 0.5 0.01 0.01 0.01 0.01 0.01 
0.01 0.01 0.01 0.01 0.01 0.01 0.985817 0.985817 0.5 
0.5 0.01 0.01 0.5 0.5 0.5 0.01 0.01 0.01 
0.01 0.01 0.01 0.01 0.5 0.849609 0.5 0.5 0.5 
0.5 0.01 0.01 0.849609 0.01 0.01 0.01 0.01 0.01 
0.01 0.01 0.849609 0.01 0.849609 0.849609 0.849609 0.5 0.849609 
0.5 0.5 0.5 0.849609 0.01 0.01 0.01 0.01 0.5 
0.01 0.01 0.01 0.01 0.01 0.01 0.01 0.01 0.01 
0.01 0.849609 0.849609 0.849609 0.01 0.849609 0.5 0.01 0.5 
0.849609 0.01 0.01 0.5 0.5 0.5 0.01 0.01 0.01 
0.5 0.5 0.5 0.01 0.01 0.01 0.01 0.01 0.01 
1.312188 1.312188 0.01 0.01 1.312188 0.01 0.985817 0.01 0.01 
0.01 0.01 0.01 0.01 0.5 0.01 0.01 0.01 0.01 
0.01 0.01 0.01 0.01 0.849609 0.01 0.01 0.5 0.01 
0.01 0.01 0.01 0.01 0.01 0.01 0.01 0.01 0.5 
0.01 0.01 0.01 0.01 0.01 0.01 0.01 0.01 0.01 
0.01 0.01 0.01 0.01 0.01 0.01 0.01 0.01 0.5 
0.5 0.5 0.01 0.01 0.01 0.01 0.01 0.01 0.5 
0.5 0.849609 0.849609 0.01 0.01 0.01 0.01 0.01 0.01 
0.5 0.01 0.01 0.01 0.01 0.01 0.01 0.01 0.01 
0.01 0.01 0.01 0.01 0.01 0.01 0.01 0.5 0.01 
0.01 0.5 0.5 0.5 0.01 0.01 0.01 1.563225 0.985817 
0.5 0.01 0.01 0.5 0.5 0.849609 0.01 0.01 0.01 
0.01 0.01 0.01 0.01 0.01 0.01 0.01 0.01 0.01 
1 1.312188 1.312188 0.01 0.01 0.01 0.01 0.01 0.01 
0.01 0.01 0.01 0.01 0.01 0.01 0.5 0.5 0.985817 
0.985817 0.985817 0.985817 0.849609 0.849609 0.01 0.01 0.849609 0.849609 
0.01 0.01 0.01 0.01 0.01 0.01 0.01 0.01 0.01 
0.01 0.01 0.01 0.01 0.01 0.01 0.01 0.01 0.5 
0.01 0.01 0.01 0.01 0.01 0.01 0.01 0.01 0.01 
0.01 0.5 0.01 0.01 0.01 0.01 0.01 0.01 0.5 
0.5 0.5 0.01 1.201529 0.5 0.01 0.01 0.01 0.01 
0.01 0.01 0.01 1 0.01 0.01 0.01 0.01 0.01 
0.01 0.01 0.01 0.01 0.01 0.01 0.01 0.01 0.01 
0.01 0.01 0.01 0.01 0.849609 0.849609 0.849609 0.985817 0.01 
0.01 0.01 0.01 0.01 0.5 0.01 0.01 0.01 0.01 
0.01 0.01 0.5 0.5 0.5 0.01 0.01 0.01 0.01 
0.01 0.01 0.01 0.01 0.5 0.5 0.5 0.01 0.01 
0.01 0.01 0.01 0.01 0.01 0.01 0.01 0.01 1.5 
0.01 0.01 0.01 0.01 0.01 0.01 0.849609 0.849609 0.5 
0.01 0.01 0.849609 0.849609 0.849609 0.01 0.5 0.01 0.985817 
0.985817 0.849609 0.01 0.01 0.01 0.5 0.01 0.01 0.01 
0.01 0.01 0.01 0.01 0.5 0.01 0.5 0.5 0.5 
0.5 0.5 0.01 0.01 0.01 0.01 0.01 0.01 0.01 
0.01 0.01 0.01 0.01 0.01 0.01 0.5 0.01 0.01 
0.5 0.5 0.01 0.01 0.01 0.01 0.01 0.01 0.5 
0.01 0.01 1.301412 1.312188 0.985817 0.01 0.01 0.01 0.01 
0.01 0.5 0.849609 0.01 0.01 0.985817 0.985817 0.5 0.01 
0.5 0.01 0.01 0.01 0.01 0.01 0.01 0.01 0.01 
0.5 0.01 0.01 0.01 0.01 0.01 0.01 0.01 0.01 
0.01 0.01 0.5 0.01 0.01 0.5 0.849609 0.5 0.5 
0.01 0.5 0.01 0.01 0.5 0.01 0.01 0.01 1.301412 
0.985817 1.301412 0.01 0.01 0.01 0.01 0.849609 0.01 0.849609 
0.985817 0.5 0.01 0.01 0.5 0.01 0.01 0.01 0.01 
0.01 0.01 0.01 0.01 0.01 0.01 0.01 0.5 0.01 
0.01 0.01 0.01 0.01 0.01 0.01 0.01 0.01 0.01 
0.01 0.01 0.01 0.01 0.01 0.01 0.01 0.01 0.01 
0.01 0.01 0.849609 0.01 0.01 0.985817 0.5 0.5 0.01 
0.01 0.01 0.01 0.01 0.01 0.01 0.01 0.01 0.01 
0.01 0.01 0.5 0.01 0.01 0.01 0.01 0.01 0.01 
0.01 0.01 0.01 0.01 0.01 0.01 0.01 0.01 0.5 
0.01 0.849609 0.01 0.01 0.5 0.01 0.01 0.01 0.01 
0.01 0.5 0.01 0.01 0.01 0.01 0.01 0.01 0.01 
0.01 0.01 0.01 0.01 0.01 0.01 0.01 0.01 0.01 
0.01 0.01 0.01 0.01 0.01 0.01 0.01 0.01 0.5 
0.01 0.01 0.01 0.5 0.5 0.5 0.01 0.01 0.01 
0.01 0.01 0.01 0.01 0.01 0.01 0.01 0.5 0.01 
0.01 0.01 0.5 0.01 0.01 0.01 0.01 0.01 0.01 
0.985817 0.01 0.01 0.01 0.01 0.5 0.01 0.01 0.01 
0.01 0.01 0.01 0.5 0.01 0.01 0.01 0.01 0.01 
0.01 0.01 0.01 0.01 0.01 0.01 0.01 0.01 0.01 
0.01 0.01 0.01 0.01 0.01 0.01 0.5 0.5 0.01 
0.01 0.5 0.5 0.01 0.01 0.5 0.01 0.01 0.01 
0.01 0.01 0.01 0.01 0.01 0.5 0.01 0.01 0.01 
0.01 1.201529 0.01 0.01 0.01 0.01 0.985817 0.01 0.01 
0.01 0.5 0.5 0.01 0.01 0.01 0.01 0.01 0.01 
0.5 0.5 0.01 0.01 0.01 0.01 0.01 0.01 0.01 
0.01 0.01 0.01 0.01 0.01 0.01 0.01 0.01 0.01 
0.01 0.01 0.01 0.849609 0.01 0.01 0.01 0.5 0.01 
0.01 0.01 0.01 0.01 0.01 0.01 0.01 0.5 0.01 
0.01 0.01 0.01 0.01 0.849609 0.01 1.201529 0.01 0.01 
0.01 0.01 0.01 0.01 0.01 0.01 0.985817 0.01 0.01 
0.01 0.01 0.01 0.01 0.01 0.5 0.01 0.5 0.5 
0.849609 0.01 0.01 0.01 0.01 0.01 0.01 0.01 0.01 
0.01 0.01 0.01 0.5 0.5 0.01 0.01 0.01 0.01 
0.01 0.01 0.01 0.01 0.01 0.01 0.01 0.01 0.01 
0.01 0.01 0.01 0.01 0.01 0.985817 0.01 0.01 0.849609 
0.01 0.01 0.01 0.01 0.01 0.5 0.01 0.01 0.01 
0.01 0.985817 0.01 0.01 0.01 0.5 0.5 0.5 0.01 
0.01 0.5 0.5 0.01 0.01 0.01 0.01 0.01 0.01 
0.01 0.01 0.01 0.5 0.01 0.01 0.01 0.01 0.01 
0.01 0.01 0.01 0.01 0.01 0.01 0.01 0.5 0.5 
0.849609 0.5 0.01 0.01 0.01 0.01 0.01 0.01 0.01 
0.5 0.849609 0.01 0.01 0.01 0.01 0.01 0.01 0.01 
0.849609 0.01 0.01 0.01 0.01 0.01 0.01 0.01 0.01 
0.01 0.01 0.01 0.01 0.01 0.01 0.01 0.985817 0.01 
0.01 0.01 0.01 0.5 0.5 0.01 0.01 0.01 0.01 
0.01 0.5 0.01 0.01 0.01 0.01 0.01 1.201529 0.01 
0.01 0.985817 0.01 0.01 0.5 0.01 0.01 0.01 0.5 
0.5 0.849609 0.01 0.01 0.01 0.5 0.5 0.01 0.01 
0.01 0.01 0.01 0.01 0.01 0.01 0.01 0.01 0.01 
0.01 0.01 0.01 0.5 0.01 0.5 0.01 0.01 0.01 
0.01 0.01 0.01 0.01 0.01 0.01 0.01 0.01 0.01 
0.01 0.01 0.01 0.01 0.01 0.01 0.01 0.5 0.5 
0.5 0.01 0.01 0.01 0.01 0.849609 0.849609 0.849609 0.849609 
0.01 0.01 0.01 0.01 0.01 0.01 0.01 0.01 0.01 
0.01 0.01 0.01 0.01 0.01 0.849609 0.01 0.01 0.985817 
0.849609 0.01 0.849609 0.01 0.01 0.5 0.5 0.849609 0.849609 
0.849609 0.01 0.01 0.01 0.01 0.01 0.01 0.01 0.01 
0.5 0.01 0.01 0.01 0.01 0.01 0.01 0.01 0.01 
0.5 0.01 0.01 0.01 0.01 0.01 0.01 0.01 0.5 
0.01 0.5 0.5 0.849609 0.01 0.849609 0.01 0.01 0.01 
0.01 0.01 0.01 0.01 0.01 0.01 0.01 0.01 0.01 
0.849609 0.849609 0.849609 0.01 0.985817 0.5 0.5 0.849609 0.01 
0.849609 0.01 0.5 0.01 0.849609 0.01 0.5 0.01 0.01 
0.01 0.01 0.01 0.01 0.01 0.01 0.01 0.5 0.01 
0.01 0.01 0.01 0.01 0.01 0.01 0.01 0.01 0.01 
0.01 0.01 0.5 0.01 0.01 0.01 0.01 0.01 0.01 
0.01 0.01 0.01 0.01 0.01 0.01 0.01 0.01 0.01 
0.01 0.01 0.01 0.01 0.849609 0.01 0.01 0.985817 0.01 
0.849609 0.5 0.5 0.01 0.01 0.5 0.01 0.01 0.01 
0.01 0.5 0.01 0.01 0.01 0.01 0.01 0.5 0.01 
0.01 0.01 0.01 0.849609 0.01 0.5 0.01 0.01 0.5 
0.01 0.849609 0.01 0.01 0.01 0.01 0.01 0.849609 0.849609 
0.01 0.985817 0.5 0.01 0.5 0.01 0.01 0.01 0.5 
0.01 0.01 0.01 0.01 0.849609 0.849609 0.01 0.01 0.01 
0.01 0.01 0.01 0.849609 0.01 0.01 0.5 0.849609 0.01 
0.5 0.5 0.01 0.849609 0.01 0.01 0.985817 0.5 0.5 
0.849609 0.01 0.01 0.01 0.5 0.01 0.01 0.01 0.849609 
0.5 0.01 0.01 0.01 0.01 0.01 0.01 0.01 0.01 
0.01 0.01 0.849609 0.01 0.5 0.01 0.01 0.849609 0.5 
0.5 0.01 0.849609 0.01 0.01 0.01 0.01 0.01 0.01 
1.312188 1.312188 0.5 0.849609 0.01 0.01 0.01 0.01 0.5 
0.01 0.01 0.01 0.01 0.01 0.01 0.01 0.01 0.5 
0.849609 0.01 0.01 0.01 0.01 0.01 0.01 0.01 0.01 
0.01 0.01 0.01 0.849609 0.849609 0.01 0.5 0.01 0.01 
0.01 0.5 0.5 0.849609 0.5 0.01 0.01 0.849609 0.01 
0.01 0.01 0.01 0.01 0.01 0.985817 0.849609 0.01 0.849609 
0.5 0.01 0.01 0.01 0.01 0.01 0.01 0.01 0.01 
0.01 0.01 0.01 0.01 0.01 0.01 0.01 0.01 0.01 
0.01 0.01 0.01 0.01 0.5 0.5 0.01 0.01 0.01 
0.01 0.01 0.01 0.01 0.01 0.01 0.01 0.01 0.01 
0.01 0.01 0.5 0.01 0.849609 0.01 0.01 0.01 0.01 
0.5 0.01 0.01 0.849609 0.01 0.01 0.01 0.01 0.01 
0.985817 0.5 0.5 0.01 0.01 0.01 0.01 0.01 0.5 
0.5 0.01 0.01 0.01 0.01 0.01 0.01 0.01 0.5 
0.01 0.01 0.01 0.01 0.01 0.01 0.01 0.01 0.01 
0.01 0.01 0.01 0.01 0.01 0.01 0.01 0.01 0.5 
0.5 0.01 0.01 0.01 0.985817 0.985817 0.985817 0.01 0.01 
0.01 0.01 0.01 0.01 0.01 0.01 0.01 1.301412 0.849609 
0.849609 0.01 0.01 0.01 0.01 0.01 0.5 0.849609 0.849609 
0.01 0.01 0.01 0.5 0.01 0.01 0.01 0.01 0.01 
0.01 0.01 0.01 0.01 0.01 0.01 0.01 0.01 0.01 
0.01 0.01 0.01 0.01 0.01 0.01 0.01 0.01 0.01 
0.01 0.5 0.849609 0.01 0.01 0.01 0.01 0.849609 0.849609 
0.01 0.01 0.01 0.01 0.01 0.01 0.849609 0.01 0.01 
0.01 0.01 0.01 1.301412 0.849609 0.01 0.01 0.01 0.849609 
0.5 0.849609 0.5 0.5 0.01 0.01 0.01 0.01 0.01 
0.01 0.01 0.01 0.01 0.01 0.01 0.01 0.01 0.01 
0.01 0.01 0.01 0.01 0.01 0.01 0.01 0.5 0.01 
0.5 0.01 0.01 0.01 0.01 0.01 0.849609 0.01 0.01 
0.01 0.01 0.985817 0.849609 0.849609 0.01 0.01 0.01 0.01 
0.01 0.01 0.01 0.01 0.5 0.849609 0.5 0.01 0.5 
0.01 0.01 0.01 0.01 0.01 0.01 0.01 0.01 0.01 
0.01 0.01 0.01 0.01 0.01 0.01 0.01 0.01 0.01 
0.01 0.01 0.01 0.01 0.01 0.01 0.01 0.01 0.01 
0.01 0.01 0.01 0.01 0.01 0.01 0.01 0.5 0.01 
0.01 0.01 0.01 0.01 0.01 0.01 0.01 0.849609 0.01 
0.01 0.01 0.01 0.985817 0.849609 0.849609 0.01 0.01 0.01 
0.01 0.01 0.01 0.01 0.01 0.01 0.5 0.01 0.5 
0.01 0.01 0.01 0.01 0.01 0.01 0.01 0.01 0.01 
0.01 0.01 0.01 0.01 0.01 0.01 0.01 0.01 0.01 
0.01 0.01 0.01 0.01 0.01 0.01 0.849609 0.5 0.01 
0.01 0.01 0.01 0.849609 0.01 0.01 0.01 0.985817 0.849609 
0.849609 0.01 0.01 0.01 0.01 0.5 0.5 0.01 0.01 
0.01 0.01 0.01 0.01 0.01 0.01 0.01 0.01 0.01 
0.01 0.01 0.01 0.01 0.01 0.01 0.01 0.01 0.01 
0.01 0.01 0.01 0.5 0.5 0.849609 0.5 0.01 0.01 
0.01 0.01 0.01 0.849609 0.01 0.01 0.01 0.01 0.985817 
0.01 0.01 0.01 0.01 0.849609 0.849609 0.01 0.01 0.01 
0.01 0.5 0.01 0.5 0.01 0.01 0.01 0.01 0.01 
0.01 0.01 0.01 0.01 0.01 0.01 0.01 0.01 0.01 
0.01 0.01 0.01 0.01 0.01 0.01 0.01 0.849609 0.01 
0.01 0.01 0.985817 0.985817 0.01 0.01 0.01 0.01 0.01 
0.01 0.01 0.01 0.01 0.01 0.849609 0.849609 0.01 0.01 
0.01 0.01 0.01 0.01 0.01 0.5 0.5 0.01 0.01 
0.849609 0.01 0.01 0.01 0.5 0.01 0.01 0.01 0.01 
0.01 0.01 0.01 0.01 0.01 0.01 0.01 0.01 0.01 
0.01 0.01 0.01 0.5 0.5 0.849609 0.01 0.01 0.01 
0.01 0.01 0.01 0.01 0.01 0.01 0.01 0.849609 0.01 
0.01 0.01 0.985817 0.985817 0.01 0.01 0.01 0.01 0.01 
0.01 0.01 0.01 0.01 0.849609 0.01 0.01 0.01 0.849609 
0.01 0.5 0.01 0.5 0.5 0.01 0.01 0.01 0.01 
0.01 0.01 0.01 0.01 0.01 0.01 0.01 0.01 0.01 
0.01 0.849609 0.5 0.5 0.01 0.01 0.01 0.01 0.01 
0.01 0.01 0.01 0.01 0.01 0.01 0.849609 0.849609 0.01 
0.01 0.985817 0.01 0.01 0.01 0.01 0.01 0.01 0.01 
0.01 0.01 0.5 0.849609 0.01 0.01 0.01 0.01 0.849609 
0.01 0.01 0.01 0.01 0.01 0.5 0.01 0.01 0.01 
0.01 0.01 0.01 0.01 0.01 0.01 0.5 0.5 0.849609 
0.5 0.5 0.01 0.01 0.01 0.01 0.01 0.01 0.01 
0.01 0.01 0.01 0.5 0.5 0.849609 0.01 0.01 0.01 
0.985817 0.01 0.01 0.01 0.01 0.01 0.01 0.01 0.01 
0.01 0.01 0.01 0.01 0.01 0.5 0.5 0.01 0.01 
0.01 0.849609 0.849609 0.01 0.01 0.01 0.01 0.01 0.01 
0.01 0.01 0.01 0.01 0.01 0.5 0.01 0.01 0.01 
0.01 0.01 0.01 0.01 0.01 0.01 0.01 0.01 0.01 
0.01 0.5 0.849609 0.5 0.5 0.01 0.01 0.01 0.01 
0.01 0.01 0.01 0.01 0.01 0.01 0.849609 0.849609 0.01 
0.01 0.01 0.01 0.985817 0.01 0.01 0.01 0.01 0.01 
0.01 0.01 0.01 0.01 0.01 0.01 0.5 0.01 0.01 
0.01 0.985817 0.5 0.5 0.01 0.01 0.01 0.5 0.01 
0.01 0.01 0.01 0.01 0.01 0.01 0.01 0.5 0.5 
0.849609 0.849609 0.5 0.849609 0.849609 0.01 0.01 0.01 0.01 
0.01 0.849609 0.849609 0.01 0.01 0.849609 0.985817 0.01 0.01 
0.01 0.01 0.01 0.01 0.01 0.01 0.01 0.01 0.01 
0.5 0.849609 0.01 0.5 0.01 0.01 0.01 0.01 0.849609 
0.01 0.01 0.01 0.01 0.01 0.01 0.01 0.01 0.01 
0.5 0.5 0.01 0.01 0.01 0.01 0.01 0.01 0.01 
0.01 0.01 0.01 0.01 0.01 0.01 0.01 0.849609 0.849609 
0.01 0.985817 0.01 0.01 0.01 0.01 0.01 0.01 0.01 
0.01 0.01 0.01 0.849609 0.01 0.849609 0.849609 0.849609 0.849609 
0.01 0.01 0.849609 0.5 0.849609 0.849609 0.849609 0.01 0.01 
0.01 0.849609 0.01 0.01 0.01 0.01 0.01 0.5 0.01 
0.01 0.5 0.01 0.01 0.01 0.01 0.849609 0.849609 0.01 
0.01 0.01 0.01 0.01 0.01 0.01 0.5 0.01 0.01 
0.01 0.01 0.01 0.01 0.01 0.01 0.01 0.01 0.01 
0.5 0.01 0.01 0.5 0.01 0.01 0.01 0.01 0.01 
0.985817 0.01 0.849609 0.985817 0.01 0.01 0.01 0.01 0.01 
0.01 0.01 0.01 0.01 0.01 0.01 0.01 0.01 0.01 
0.01 0.01 0.849609 0.01 0.01 0.01 0.01 0.01 0.01 
0.01 0.01 0.01 0.01 0.01 0.01 0.5 0.849609 0.849609 
0.01 0.5 0.01 0.01 0.01 0.5 0.01 0.01 0.01 
0.01 0.01 0.01 0.01 0.01 0.01 0.01 0.01 0.01 
0.01 0.01 0.01 0.01 0.01 0.01 0.01 0.01 0.01 
0.01 0.01 0.01 0.01 0.01 0.01 0.849609 0.849609 0.849609 
0.849609 0.5 0.01 0.01 0.01 0.01 0.5 0.01 0.01 
0.5 0.01 0.01 0.01 0.01 0.01 0.01 0.01 0.01 
0.01 0.01 0.01 0.01 0.01 0.01 0.01 0.01 0.01 
0.01 0.01 0.01 0.01 0.01 0.5 0.985817 0.01 0.849609 
0.849609 0.01 0.01 0.01 0.01 0.01 0.01 0.5 0.01 
0.01 0.01 0.01 0.01 0.01 0.01 0.01 0.5 0.5 
0.01 0.01 0.5 0.01 0.5 0.849609 0.5 0.849609 0.849609 
0.01 0.01 0.849609 0.5 0.849609 0.5 0.01 0.01 0.01 
0.01 0.01 0.01 0.01 0.01 0.01 0.01 0.01 0.01 
0.01 0.01 0.01 0.01 0.01 0.01 0.01 0.01 0.01 
0.01 0.849609 0.01 0.01 0.01 0.01 0.5 0.849609 0.01 
0.5 0.01 0.01 0.01 0.01 0.01 0.01 0.01 0.5 
0.01 0.01 0.5 0.01 0.01 0.01 0.01 0.01 0.01 
0.01 0.01 0.01 0.01 0.01 0.01 0.01 0.01 0.01 
0.985817 0.01 0.01 0.01 0.01 0.849609 0.01 0.01 0.01 
0.01 0.01 0.01 0.5 0.01 0.01 0.01 0.01 0.5 
0.01 0.01 0.01 0.01 0.01 0.01 0.01 0.01 0.01 
0.01 0.01 0.01 0.01 0.01 0.01 0.01 0.01 0.01 
0.01 0.01 0.01 0.849609 0.01 0.01 0.01 0.01 0.01 
0.01 0.5 0.5 0.01 0.01 0.01 0.01 0.01 0.01 
0.01 0.01 0.01 0.01 0.01 0.01 0.01 0.01 0.01 
0.985817 0.01 0.01 0.849609 0.01 0.01 0.01 0.01 0.01 
0.01 0.01 0.01 0.01 0.01 0.01 0.01 0.5 0.5 
0.849609 0.5 0.01 0.01 0.5 0.01 0.01 0.01 0.849609 
0.01 0.01 0.01 0.01 0.849609 0.5 0.5 0.5 0.01 
0.01 0.01 0.01 0.01 0.01 0.985817 0.01 0.01 0.01 
0.01 0.01 0.01 0.01 0.01 0.01 0.01 0.5 0.01 
0.01 0.01 0.01 0.01 0.01 0.01 0.01 0.01 0.01 
0.01 0.01 0.01 0.01 0.01 0.01 0.01 0.01 0.01 
0.01 0.01 0.01 0.01 0.01 0.01 0.01 0.849609 0.01 
0.5 0.01 0.849609 0.5 0.01 0.01 0.01 0.01 0.01 
0.01 0.01 0.01 0.01 0.01 0.01 0.985817 0.01 0.01 
0.01 0.01 0.01 0.5 0.01 0.01 0.01 0.01 0.01 
0.01 0.01 0.5 0.01 0.01 0.01 0.849609 0.849609 0.5 
0.01 0.01 0.01 0.01 0.01 0.01 0.01 0.01 0.01 
0.01 0.01 0.01 0.01 0.01 0.01 0.01 0.01 0.01 
0.01 0.5 0.01 0.01 0.01 0.849609 0.01 0.01 0.01 
0.01 0.01 0.01 0.01 0.01 0.01 0.01 0.985817 0.01 
0.01 0.01 0.01 0.01 0.01 0.01 0.01 0.01 0.5 
0.01 0.01 0.01 0.01 0.01 0.01 0.01 0.01 0.5 
0.01 0.01 0.01 0.01 0.01 0.01 0.01 0.5 0.5 
0.5 0.01 0.01 0.01 0.5 0.01 0.01 0.01 0.01 
0.01 0.5 0.01 0.01 0.849609 0.01 0.01 0.01 0.01 
0.01 0.01 0.01 0.01 0.01 0.985817 0.01 0.01 0.01 
0.01 0.01 0.01 0.01 0.01 0.01 0.01 0.01 0.01 
0.01 0.01 0.01 0.01 0.01 0.01 0.5 0.5 0.5 
0.01 0.01 0.01 0.01 0.01 0.01 0.01 0.01 0.01 
0.01 0.01 0.01 0.01 0.01 0.01 0.01 0.01 0.01 
0.01 0.01 0.01 0.01 0.01 0.01 0.01 0.01 0.01 
0.01 0.5 0.01 0.01 0.01 0.01 0.01 0.01 0.01 
0.01 0.01 0.01 0.01 0.5 0.849609 0.849609 0.01 0.01 
0.01 0.01 0.01 0.01 0.01 0.5 0.01 0.01 0.01 
0.01 0.5 0.01 0.5 0.01 0.01 0.01 0.01 0.01 
0.01 0.5 0.01 0.01 0.01 0.985817 0.01 0.01 0.01 
0.01 0.01 0.01 0.01 0.01 0.01 0.5 0.01 0.01 
0.01 0.01 0.01 0.01 0.01 0.01 0.01 0.01 0.01 
0.01 0.01 0.01 0.01 0.01 0.5 0.5 0.01 0.01 
0.01 0.01 0.01 0.01 0.01 0.01 0.01 0.01 0.01 
0.01 0.01 0.01 0.01 0.01 0.01 0.5 0.01 0.5 
0.01 0.01 0.01 0.01 0.01 0.01 0.849609 0.985817 0.01 
0.01 0.01 0.01 0.01 0.01 0.01 0.01 0.01 0.01 
0.01 0.01 0.01 0.01 0.01 0.01 0.01 0.01 0.01 
0.01 0.01 0.01 0.01 0.01 0.5 0.01 0.01 0.5 
0.01 0.01 0.01 0.01 0.01 0.01 0.5 0.985817 0.01 
0.01 0.01 0.01 0.5 0.01 0.01 0.01 0.5 0.01 
0.01 0.01 0.01 0.01 0.01 0.01 0.01 0.01 0.5 
0.01 0.01 0.01 0.01 0.01 0.01 0.01 0.5 0.01 
0.01 0.01 0.01 0.5 0.01 0.01 0.01 0.5 0.01 
0.01 0.01 0.01 0.01 0.01 0.01 0.01 0.01 0.5 
0.5 0.985817 0.01 0.01 0.01 0.01 0.01 0.01 0.01 
0.01 0.01 0.01 0.01 0.01 0.01 0.01 0.5 0.849609 
0.5 0.01 0.01 0.5 0.01 0.01 0.01 0.01 0.01 
0.01 0.01 0.01 0.01 0.01 0.01 0.01 0.01 0.01 
0.01 0.01 0.01 0.01 0.01 0.01 0.01 0.5 0.01 
0.01 0.01 0.5 0.01 0.01 0.01 0.01 0.01 0.5 
0.01 0.5 0.985817 0.01 0.01 0.01 0.01 0.01 0.01 
0.01 0.01 0.01 0.01 0.01 0.01 0.01 0.01 0.01 
0.01 0.01 0.01 0.5 0.01 0.01 0.01 0.01 0.01 
0.01 0.01 0.01 0.01 0.01 0.01 0.01 0.01 0.01 
0.01 0.01 0.5 0.01 0.01 0.01 0.01 0.5 0.5 
0.01 0.5 0.5 0.5 0.5 0.01 0.01 0.01 0.01 
0.01 0.01 0.01 0.01 0.985817 0.01 0.01 0.01 0.01 
0.01 0.01 0.01 0.01 0.01 0.01 0.01 0.01 0.01 
0.01 0.01 0.01 0.01 0.01 0.01 0.01 0.01 0.01 
0.01 0.01 0.01 0.01 0.5 0.01 0.01 0.01 0.01 
0.5 0.5 0.5 0.01 0.849609 0.5 0.01 0.01 0.01 
0.01 0.01 0.01 0.01 0.01 0.01 0.01 0.5 0.01 
1.201529 0.01 0.01 0.01 0.01 0.01 0.01 0.01 0.01 
0.01 0.01 0.01 0.01 0.01 0.01 0.01 0.01 0.01 
0.01 0.01 0.01 0.01 0.01 0.01 0.01 0.01 0.01 
0.01 0.01 0.5 0.01 0.849609 0.849609 0.01 0.01 0.01 
0.01 0.01 0.01 0.01 0.01 0.01 0.01 0.01 0.01 
0.01 0.5 0.849609 0.849609 0.849609 1.201529 0.01 0.01 0.01 
0.01 0.01 0.01 0.01 0.01 0.01 0.01 0.01 0.01 
0.01 0.01 0.5 0.01 0.01 0.01 0.01 0.01 0.01 
0.01 0.01 0.01 0.01 0.01 0.01 0.01 0.01 0.01 
0.01 0.01 0.01 0.01 0.01 0.01 0.01 0.01 0.01 
0.01 0.01 0.01 0.01 0.01 0.01 0.01 0.01 0.5 
0.01 0.849609 0.985817 0.01 0.5 0.01 0.5 0.849609 0.849609 
0.01 0.01 0.5 0.849609 0.849609 0.849609 0.01 0.01 0.985817 
0.01 0.01 0.01 0.01 0.985817 0.5 0.5 0.01 0.01 
0.01 0.01 0.5 0.01 0.01 0.01 0.01 0.01 0.01 
0.01 0.01 0.01 0.01 0.01 0.01 0.01 0.01 0.01 
0.01 0.01 0.01 0.01 0.5 0.5 0.01 0.01 0.01 
0.01 0.01 0.01 0.01 0.5 0.5 0.01 0.849609 0.5 
0.01 0.01 0.01 0.5 0.01 0.5 0.01 0.01 0.01 
0.985817 0.01 0.01 0.01 0.01 0.985817 0.01 0.01 0.01 
0.01 0.01 0.01 0.5 0.5 0.01 0.01 0.01 0.01 
0.01 0.01 0.01 0.01 0.01 0.01 0.01 0.01 0.01 
0.01 0.01 0.01 0.01 0.01 0.01 0.5 0.5 0.01 
0.5 0.01 0.5 0.01 0.01 0.849609 0.01 0.849609 0.5 
0.5 0.01 0.01 0.01 0.01 0.01 0.01 0.01 0.01 
0.01 1 0.01 0.5 0.5 0.5 0.01 0.985817 0.01 
0.01 0.01 0.01 0.01 0.5 0.01 0.01 0.849609 0.01 
0.01 0.01 0.01 0.01 0.01 0.01 0.01 0.01 0.01 
0.01 0.01 0.01 0.01 0.01 0.01 0.01 0.01 0.01 
0.5 0.01 0.01 0.01 0.01 0.01 0.01 0.5 0.01 
0.849609 0.5 0.5 0.849609 0.01 0.01 0.01 0.01 0.01 
0.01 0.01 0.01 0.01 0.01 0.01 0.5 0.01 0.01 
0.01 0.01 0.01 0.01 0.5 0.01 0.01 0.01 0.01 
0.01 0.5 0.01 0.5 0.01 0.01 0.01 0.01 0.01 
0.01 0.01 0.01 0.01 0.01 0.01 0.01 0.01 0.01 
0.01 0.01 0.01 0.01 0.01 0.01 0.01 0.849609 0.5 
0.01 0.01 0.01 0.01 0.01 0.01 0.01 0.01 0.01 
0.01 0.01 0.01 0.01 0.01 0.01 0.5 0.01 0.01 
0.01 0.01 0.01 0.01 0.01 0.01 0.01 0.01 0.01 
0.01 0.01 0.01 0.01 0.01 0.5 0.5 0.01 0.01 
0.01 0.01 0.01 0.5 0.01 0.01 0.01 0.01 0.01 
0.01 0.849609 0.01 0.01 0.01 0.01 0.01 0.01 0.01 
0.01 0.01 0.01 0.01 0.01 0.01 0.01 0.01 0.01 
0.01 0.01 0.01 1 0.01 0.01 0.01 0.01 0.01 
0.01 0.5 0.01 0.01 0.01 0.01 0.01 0.01 0.01 
0.01 0.01 0.01 0.5 0.5 0.01 0.5 0.01 0.01 
0.01 0.01 0.01 0.849609 0.849609 0.849609 0.849609 0.849609 0.849609 
0.5 0.5 0.5 0.5 0.01 0.01 0.01 0.01 0.01 
0.01 0.5 0.01 0.01 0.01 0.01 0.01 0.01 0.01 
0.01 0.01 0.01 0.01 0.01 0.01 0.01 0.01 0.01 
1 0.01 0.01 0.01 0.01 0.01 0.01 0.01 0.01 
0.01 0.01 0.01 0.01 0.01 0.01 0.01 0.01 0.01 
0.01 0.01 0.01 0.5 0.849609 0.849609 0.849609 0.5 0.01 
0.01 0.01 0.01 0.01 0.01 0.01 0.01 0.01 0.01 
0.01 0.01 0.01 0.849609 0.01 0.01 0.01 0.01 0.01 